MODEL 1
REMARK VINA RESULT:    -8.383      0.000      0.000
REMARK INTER + INTRA:         -11.844
REMARK INTER:                 -11.324
REMARK INTRA:                  -0.521
REMARK UNBOUND:                -0.521
REMARK  Name = resultss/4CJN/ligands/lig_407_t0.pdb
REMARK  6 active torsions:
REMARK  status: ('A' for Active; 'I' for Inactive)
REMARK    1  A    between atoms: C1_2  and  C9_15
REMARK    2  A    between atoms: N1_3  and  N2_4
REMARK    3  A    between atoms: N2_4  and  C2_5
REMARK    4  A    between atoms: C2_5  and  N3_7
REMARK    5  A    between atoms: N3_7  and  C3_8
REMARK    6  A    between atoms: C19_26  and  C20_27
REMARK                            x       y       z     vdW  Elec       q    Type
REMARK                         _______ _______ _______ _____ _____    ______ ____
ROOT
ATOM      1  C9  UNL     1      27.884  -9.984 -37.644  0.00  0.00    +0.000 A 
ATOM      2  C10 UNL     1      29.104  -9.921 -36.934  0.00  0.00    +0.000 A 
ATOM      3  C11 UNL     1      29.042  -9.549 -35.596  0.00  0.00    +0.000 A 
ATOM      4  C12 UNL     1      27.851  -9.245 -34.974  0.00  0.00    +0.000 A 
ATOM      5  N4  UNL     1      28.037  -8.977 -33.659  0.00  0.00    +0.000 N 
ATOM      6  C13 UNL     1      29.367  -9.098 -33.467  0.00  0.00    +0.000 A 
ATOM      7  C14 UNL     1      30.063  -8.932 -32.270  0.00  0.00    +0.000 A 
ATOM      8  C15 UNL     1      31.457  -9.126 -32.286  0.00  0.00    +0.000 A 
ATOM      9  C16 UNL     1      32.120  -9.485 -33.482  0.00  0.00    +0.000 A 
ATOM     10  C17 UNL     1      31.396  -9.652 -34.676  0.00  0.00    +0.000 A 
ATOM     11  C18 UNL     1      30.018  -9.447 -34.631  0.00  0.00    +0.000 A 
ATOM     12  C19 UNL     1      26.649  -9.297 -35.692  0.00  0.00    +0.000 A 
ATOM     13  N5  UNL     1      26.711  -9.677 -37.005  0.00  0.00    +0.000 NA
ATOM     14  H9  UNL     1      27.317  -8.761 -32.935  0.00  0.00    +0.000 HD
ENDROOT
BRANCH  12  15
ATOM     15  C20 UNL     1      25.338  -8.966 -35.095  0.00  0.00    +0.000 A 
ATOM     16  C21 UNL     1      25.018  -9.367 -33.785  0.00  0.00    +0.000 A 
ATOM     17  C22 UNL     1      23.784  -9.024 -33.225  0.00  0.00    +0.000 A 
ATOM     18  C23 UNL     1      22.866  -8.268 -33.960  0.00  0.00    +0.000 A 
ATOM     19  C24 UNL     1      23.185  -7.848 -35.254  0.00  0.00    +0.000 A 
ATOM     20  C25 UNL     1      24.418  -8.189 -35.818  0.00  0.00    +0.000 A 
ENDBRANCH  12  15
BRANCH   1  22
ATOM     21  O1  UNL     1      26.762 -10.401 -39.693  0.00  0.00    +0.000 OA
ATOM     22  C1  UNL     1      27.855 -10.391 -39.064  0.00  0.00    +0.000 C 
ATOM     23  N1  UNL     1      29.061 -10.793 -39.730  0.00  0.00    +0.000 N 
ATOM     24  H1  UNL     1      29.878 -11.097 -39.154  0.00  0.00    +0.000 HD
BRANCH  23  25
ATOM     25  N2  UNL     1      29.081 -11.083 -41.105  0.00  0.00    +0.000 N 
ATOM     26  H2  UNL     1      28.475 -11.860 -41.446  0.00  0.00    +0.000 HD
BRANCH  25  27
ATOM     27  C2  UNL     1      29.984 -10.437 -42.022  0.00  0.00    +0.000 C 
ATOM     28  S1  UNL     1      29.455  -9.262 -43.038  0.00  0.00    +0.000 S 
BRANCH  27  29
ATOM     29  N3  UNL     1      31.364 -10.828 -42.086  0.00  0.00    +0.000 N 
ATOM     30  H3  UNL     1      31.945 -10.714 -41.225  0.00  0.00    +0.000 HD
BRANCH  29  31
ATOM     31  C3  UNL     1      31.987 -11.382 -43.256  0.00  0.00    +0.000 A 
ATOM     32  C4  UNL     1      32.772 -10.580 -44.106  0.00  0.00    +0.000 A 
ATOM     33  C5  UNL     1      33.344 -11.124 -45.260  0.00  0.00    +0.000 A 
ATOM     34  C6  UNL     1      33.127 -12.466 -45.583  0.00  0.00    +0.000 A 
ATOM     35  C7  UNL     1      32.332 -13.265 -44.757  0.00  0.00    +0.000 A 
ATOM     36  C8  UNL     1      31.757 -12.725 -43.601  0.00  0.00    +0.000 A 
ATOM     37  F1  UNL     1      30.987 -13.513 -42.810  0.00  0.00    +0.000 F 
ENDBRANCH  29  31
ENDBRANCH  27  29
ENDBRANCH  25  27
ENDBRANCH  23  25
ENDBRANCH   1  22
TORSDOF 6
ENDMDL
MODEL 2
REMARK VINA RESULT:    -7.874      0.896      4.399
REMARK INTER + INTRA:         -11.156
REMARK INTER:                 -10.614
REMARK INTRA:                  -0.543
REMARK UNBOUND:                -0.521
REMARK  Name = resultss/4CJN/ligands/lig_407_t0.pdb
REMARK  6 active torsions:
REMARK  status: ('A' for Active; 'I' for Inactive)
REMARK    1  A    between atoms: C1_2  and  C9_15
REMARK    2  A    between atoms: N1_3  and  N2_4
REMARK    3  A    between atoms: N2_4  and  C2_5
REMARK    4  A    between atoms: C2_5  and  N3_7
REMARK    5  A    between atoms: N3_7  and  C3_8
REMARK    6  A    between atoms: C19_26  and  C20_27
REMARK                            x       y       z     vdW  Elec       q    Type
REMARK                         _______ _______ _______ _____ _____    ______ ____
ROOT
ATOM      1  C9  UNL     1      27.267  -9.651 -38.074  0.00  0.00    +0.000 A 
ATOM      2  C10 UNL     1      26.001  -9.177 -37.668  0.00  0.00    +0.000 A 
ATOM      3  C11 UNL     1      25.869  -8.768 -36.346  0.00  0.00    +0.000 A 
ATOM      4  C12 UNL     1      26.919  -8.821 -35.454  0.00  0.00    +0.000 A 
ATOM      5  N4  UNL     1      26.567  -8.309 -34.250  0.00  0.00    +0.000 N 
ATOM      6  C13 UNL     1      25.274  -7.950 -34.391  0.00  0.00    +0.000 A 
ATOM      7  C14 UNL     1      24.455  -7.359 -33.431  0.00  0.00    +0.000 A 
ATOM      8  C15 UNL     1      23.132  -7.044 -33.795  0.00  0.00    +0.000 A 
ATOM      9  C16 UNL     1      22.661  -7.318 -35.100  0.00  0.00    +0.000 A 
ATOM     10  C17 UNL     1      23.508  -7.911 -36.054  0.00  0.00    +0.000 A 
ATOM     11  C18 UNL     1      24.810  -8.217 -35.662  0.00  0.00    +0.000 A 
ATOM     12  C19 UNL     1      28.166  -9.307 -35.865  0.00  0.00    +0.000 A 
ATOM     13  N5  UNL     1      28.297  -9.696 -37.170  0.00  0.00    +0.000 NA
ATOM     14  H9  UNL     1      27.163  -8.179 -33.404  0.00  0.00    +0.000 HD
ENDROOT
BRANCH  12  15
ATOM     15  C20 UNL     1      29.329  -9.410 -34.958  0.00  0.00    +0.000 A 
ATOM     16  C21 UNL     1      30.634  -9.164 -35.423  0.00  0.00    +0.000 A 
ATOM     17  C22 UNL     1      31.720  -9.239 -34.547  0.00  0.00    +0.000 A 
ATOM     18  C23 UNL     1      31.514  -9.548 -33.199  0.00  0.00    +0.000 A 
ATOM     19  C24 UNL     1      30.219  -9.773 -32.725  0.00  0.00    +0.000 A 
ATOM     20  C25 UNL     1      29.129  -9.698 -33.598  0.00  0.00    +0.000 A 
ENDBRANCH  12  15
BRANCH   1  22
ATOM     21  O1  UNL     1      26.715  -9.717 -40.382  0.00  0.00    +0.000 OA
ATOM     22  C1  UNL     1      27.502 -10.086 -39.467  0.00  0.00    +0.000 C 
ATOM     23  N1  UNL     1      28.610 -10.940 -39.785  0.00  0.00    +0.000 N 
ATOM     24  H1  UNL     1      29.052 -11.498 -39.020  0.00  0.00    +0.000 HD
BRANCH  23  25
ATOM     25  N2  UNL     1      28.919 -11.282 -41.113  0.00  0.00    +0.000 N 
ATOM     26  H2  UNL     1      28.502 -12.158 -41.497  0.00  0.00    +0.000 HD
BRANCH  25  27
ATOM     27  C2  UNL     1      29.868 -10.545 -41.905  0.00  0.00    +0.000 C 
ATOM     28  S1  UNL     1      29.396  -9.252 -42.799  0.00  0.00    +0.000 S 
BRANCH  27  29
ATOM     29  N3  UNL     1      31.247 -10.943 -41.951  0.00  0.00    +0.000 N 
ATOM     30  H3  UNL     1      31.797 -10.903 -41.063  0.00  0.00    +0.000 HD
BRANCH  29  31
ATOM     31  C3  UNL     1      31.908 -11.409 -43.138  0.00  0.00    +0.000 A 
ATOM     32  C4  UNL     1      32.677 -10.535 -43.929  0.00  0.00    +0.000 A 
ATOM     33  C5  UNL     1      33.287 -10.994 -45.100  0.00  0.00    +0.000 A 
ATOM     34  C6  UNL     1      33.123 -12.322 -45.500  0.00  0.00    +0.000 A 
ATOM     35  C7  UNL     1      32.345 -13.193 -44.733  0.00  0.00    +0.000 A 
ATOM     36  C8  UNL     1      31.732 -12.738 -43.560  0.00  0.00    +0.000 A 
ATOM     37  F1  UNL     1      30.978 -13.595 -42.827  0.00  0.00    +0.000 F 
ENDBRANCH  29  31
ENDBRANCH  27  29
ENDBRANCH  25  27
ENDBRANCH  23  25
ENDBRANCH   1  22
TORSDOF 6
ENDMDL
MODEL 3
REMARK VINA RESULT:    -7.815      3.218      3.843
REMARK INTER + INTRA:         -11.076
REMARK INTER:                  -9.507
REMARK INTRA:                  -1.570
REMARK UNBOUND:                -0.521
REMARK  Name = resultss/4CJN/ligands/lig_407_t0.pdb
REMARK  6 active torsions:
REMARK  status: ('A' for Active; 'I' for Inactive)
REMARK    1  A    between atoms: C1_2  and  C9_15
REMARK    2  A    between atoms: N1_3  and  N2_4
REMARK    3  A    between atoms: N2_4  and  C2_5
REMARK    4  A    between atoms: C2_5  and  N3_7
REMARK    5  A    between atoms: N3_7  and  C3_8
REMARK    6  A    between atoms: C19_26  and  C20_27
REMARK                            x       y       z     vdW  Elec       q    Type
REMARK                         _______ _______ _______ _____ _____    ______ ____
ROOT
ATOM      1  C9  UNL     1      25.618  -8.284 -38.079  0.00  0.00    +0.000 A 
ATOM      2  C10 UNL     1      26.995  -8.572 -37.964  0.00  0.00    +0.000 A 
ATOM      3  C11 UNL     1      27.511  -8.709 -36.681  0.00  0.00    +0.000 A 
ATOM      4  C12 UNL     1      26.726  -8.566 -35.556  0.00  0.00    +0.000 A 
ATOM      5  N4  UNL     1      27.435  -8.810 -34.428  0.00  0.00    +0.000 N 
ATOM      6  C13 UNL     1      28.684  -9.088 -34.857  0.00  0.00    +0.000 A 
ATOM      7  C14 UNL     1      29.789  -9.420 -34.075  0.00  0.00    +0.000 A 
ATOM      8  C15 UNL     1      31.003  -9.696 -34.732  0.00  0.00    +0.000 A 
ATOM      9  C16 UNL     1      31.087  -9.641 -36.142  0.00  0.00    +0.000 A 
ATOM     10  C17 UNL     1      29.957  -9.309 -36.911  0.00  0.00    +0.000 A 
ATOM     11  C18 UNL     1      28.771  -9.035 -36.233  0.00  0.00    +0.000 A 
ATOM     12  C19 UNL     1      25.364  -8.266 -35.683  0.00  0.00    +0.000 A 
ATOM     13  N5  UNL     1      24.856  -8.145 -36.947  0.00  0.00    +0.000 NA
ATOM     14  H9  UNL     1      27.097  -8.820 -33.441  0.00  0.00    +0.000 HD
ENDROOT
BRANCH  12  15
ATOM     15  C20 UNL     1      24.468  -8.081 -34.522  0.00  0.00    +0.000 A 
ATOM     16  C21 UNL     1      24.140  -9.160 -33.681  0.00  0.00    +0.000 A 
ATOM     17  C22 UNL     1      23.313  -8.964 -32.572  0.00  0.00    +0.000 A 
ATOM     18  C23 UNL     1      22.817  -7.689 -32.285  0.00  0.00    +0.000 A 
ATOM     19  C24 UNL     1      23.155  -6.607 -33.102  0.00  0.00    +0.000 A 
ATOM     20  C25 UNL     1      23.983  -6.799 -34.213  0.00  0.00    +0.000 A 
ENDBRANCH  12  15
BRANCH   1  22
ATOM     21  O1  UNL     1      25.081  -7.056 -40.039  0.00  0.00    +0.000 OA
ATOM     22  C1  UNL     1      24.982  -8.143 -39.406  0.00  0.00    +0.000 C 
ATOM     23  N1  UNL     1      24.237  -9.230 -39.974  0.00  0.00    +0.000 N 
ATOM     24  H1  UNL     1      23.882  -9.982 -39.342  0.00  0.00    +0.000 HD
BRANCH  23  25
ATOM     25  N2  UNL     1      23.713  -9.162 -41.276  0.00  0.00    +0.000 N 
ATOM     26  H2  UNL     1      22.687  -9.314 -41.394  0.00  0.00    +0.000 HD
BRANCH  25  27
ATOM     27  C2  UNL     1      24.544  -9.014 -42.442  0.00  0.00    +0.000 C 
ATOM     28  S1  UNL     1      24.232  -7.851 -43.558  0.00  0.00    +0.000 S 
BRANCH  27  29
ATOM     29  N3  UNL     1      25.651  -9.900 -42.667  0.00  0.00    +0.000 N 
ATOM     30  H3  UNL     1      25.462 -10.806 -43.152  0.00  0.00    +0.000 HD
BRANCH  29  31
ATOM     31  C3  UNL     1      27.004  -9.607 -42.281  0.00  0.00    +0.000 A 
ATOM     32  C4  UNL     1      27.804  -8.739 -43.048  0.00  0.00    +0.000 A 
ATOM     33  C5  UNL     1      29.130  -8.490 -42.679  0.00  0.00    +0.000 A 
ATOM     34  C6  UNL     1      29.672  -9.114 -41.553  0.00  0.00    +0.000 A 
ATOM     35  C7  UNL     1      28.892  -9.994 -40.797  0.00  0.00    +0.000 A 
ATOM     36  C8  UNL     1      27.565 -10.247 -41.163  0.00  0.00    +0.000 A 
ATOM     37  F1  UNL     1      26.821 -11.105 -40.420  0.00  0.00    +0.000 F 
ENDBRANCH  29  31
ENDBRANCH  27  29
ENDBRANCH  25  27
ENDBRANCH  23  25
ENDBRANCH   1  22
TORSDOF 6
ENDMDL
MODEL 4
REMARK VINA RESULT:    -7.611      3.845     10.048
REMARK INTER + INTRA:         -10.801
REMARK INTER:                  -9.814
REMARK INTRA:                  -0.986
REMARK UNBOUND:                -0.521
REMARK  Name = resultss/4CJN/ligands/lig_407_t0.pdb
REMARK  6 active torsions:
REMARK  status: ('A' for Active; 'I' for Inactive)
REMARK    1  A    between atoms: C1_2  and  C9_15
REMARK    2  A    between atoms: N1_3  and  N2_4
REMARK    3  A    between atoms: N2_4  and  C2_5
REMARK    4  A    between atoms: C2_5  and  N3_7
REMARK    5  A    between atoms: N3_7  and  C3_8
REMARK    6  A    between atoms: C19_26  and  C20_27
REMARK                            x       y       z     vdW  Elec       q    Type
REMARK                         _______ _______ _______ _____ _____    ______ ____
ROOT
ATOM      1  C9  UNL     1      27.897  -9.735 -38.155  0.00  0.00    +0.000 A 
ATOM      2  C10 UNL     1      26.682  -9.287 -38.718  0.00  0.00    +0.000 A 
ATOM      3  C11 UNL     1      26.608  -9.227 -40.104  0.00  0.00    +0.000 A 
ATOM      4  C12 UNL     1      27.668  -9.579 -40.911  0.00  0.00    +0.000 A 
ATOM      5  N4  UNL     1      27.336  -9.502 -42.222  0.00  0.00    +0.000 N 
ATOM      6  C13 UNL     1      26.055  -9.076 -42.229  0.00  0.00    +0.000 A 
ATOM      7  C14 UNL     1      25.250  -8.849 -43.344  0.00  0.00    +0.000 A 
ATOM      8  C15 UNL     1      23.926  -8.423 -43.126  0.00  0.00    +0.000 A 
ATOM      9  C16 UNL     1      23.437  -8.240 -41.812  0.00  0.00    +0.000 A 
ATOM     10  C17 UNL     1      24.267  -8.481 -40.702  0.00  0.00    +0.000 A 
ATOM     11  C18 UNL     1      25.574  -8.895 -40.950  0.00  0.00    +0.000 A 
ATOM     12  C19 UNL     1      28.874 -10.007 -40.341  0.00  0.00    +0.000 A 
ATOM     13  N5  UNL     1      28.940 -10.079 -38.976  0.00  0.00    +0.000 NA
ATOM     14  H9  UNL     1      27.917  -9.749 -43.052  0.00  0.00    +0.000 HD
ENDROOT
BRANCH  12  15
ATOM     15  C20 UNL     1      30.057 -10.383 -41.143  0.00  0.00    +0.000 A 
ATOM     16  C21 UNL     1      29.953 -11.309 -42.197  0.00  0.00    +0.000 A 
ATOM     17  C22 UNL     1      31.076 -11.633 -42.964  0.00  0.00    +0.000 A 
ATOM     18  C23 UNL     1      32.307 -11.028 -42.695  0.00  0.00    +0.000 A 
ATOM     19  C24 UNL     1      32.414 -10.092 -41.663  0.00  0.00    +0.000 A 
ATOM     20  C25 UNL     1      31.293  -9.764 -40.894  0.00  0.00    +0.000 A 
ENDBRANCH  12  15
BRANCH   1  22
ATOM     21  O1  UNL     1      29.202 -10.032 -36.194  0.00  0.00    +0.000 OA
ATOM     22  C1  UNL     1      28.056  -9.850 -36.690  0.00  0.00    +0.000 C 
ATOM     23  N1  UNL     1      26.912  -9.772 -35.826  0.00  0.00    +0.000 N 
ATOM     24  H1  UNL     1      25.964  -9.950 -36.228  0.00  0.00    +0.000 HD
BRANCH  23  25
ATOM     25  N2  UNL     1      27.045  -9.772 -34.427  0.00  0.00    +0.000 N 
ATOM     26  H2  UNL     1      26.986 -10.690 -33.935  0.00  0.00    +0.000 HD
BRANCH  25  27
ATOM     27  C2  UNL     1      27.135  -8.561 -33.655  0.00  0.00    +0.000 C 
ATOM     28  S1  UNL     1      28.594  -7.924 -33.253  0.00  0.00    +0.000 S 
BRANCH  27  29
ATOM     29  N3  UNL     1      25.948  -7.896 -33.197  0.00  0.00    +0.000 N 
ATOM     30  H3  UNL     1      25.976  -7.433 -32.260  0.00  0.00    +0.000 HD
BRANCH  29  31
ATOM     31  C3  UNL     1      24.731  -7.815 -33.957  0.00  0.00    +0.000 A 
ATOM     32  C4  UNL     1      24.633  -6.974 -35.080  0.00  0.00    +0.000 A 
ATOM     33  C5  UNL     1      23.432  -6.879 -35.790  0.00  0.00    +0.000 A 
ATOM     34  C6  UNL     1      22.316  -7.609 -35.376  0.00  0.00    +0.000 A 
ATOM     35  C7  UNL     1      22.396  -8.431 -34.248  0.00  0.00    +0.000 A 
ATOM     36  C8  UNL     1      23.595  -8.529 -33.535  0.00  0.00    +0.000 A 
ATOM     37  F1  UNL     1      23.657  -9.330 -32.442  0.00  0.00    +0.000 F 
ENDBRANCH  29  31
ENDBRANCH  27  29
ENDBRANCH  25  27
ENDBRANCH  23  25
ENDBRANCH   1  22
TORSDOF 6
ENDMDL
MODEL 5
REMARK VINA RESULT:    -7.529      4.931      9.679
REMARK INTER + INTRA:         -10.690
REMARK INTER:                  -9.387
REMARK INTRA:                  -1.304
REMARK UNBOUND:                -0.521
REMARK  Name = resultss/4CJN/ligands/lig_407_t0.pdb
REMARK  6 active torsions:
REMARK  status: ('A' for Active; 'I' for Inactive)
REMARK    1  A    between atoms: C1_2  and  C9_15
REMARK    2  A    between atoms: N1_3  and  N2_4
REMARK    3  A    between atoms: N2_4  and  C2_5
REMARK    4  A    between atoms: C2_5  and  N3_7
REMARK    5  A    between atoms: N3_7  and  C3_8
REMARK    6  A    between atoms: C19_26  and  C20_27
REMARK                            x       y       z     vdW  Elec       q    Type
REMARK                         _______ _______ _______ _____ _____    ______ ____
ROOT
ATOM      1  C9  UNL     1      25.069  -7.676 -39.571  0.00  0.00    +0.000 A 
ATOM      2  C10 UNL     1      24.117  -7.192 -40.495  0.00  0.00    +0.000 A 
ATOM      3  C11 UNL     1      24.370  -7.415 -41.844  0.00  0.00    +0.000 A 
ATOM      4  C12 UNL     1      25.500  -8.074 -42.278  0.00  0.00    +0.000 A 
ATOM      5  N4  UNL     1      25.492  -8.228 -43.624  0.00  0.00    +0.000 N 
ATOM      6  C13 UNL     1      24.349  -7.638 -44.033  0.00  0.00    +0.000 A 
ATOM      7  C14 UNL     1      23.872  -7.541 -45.340  0.00  0.00    +0.000 A 
ATOM      8  C15 UNL     1      22.637  -6.899 -45.545  0.00  0.00    +0.000 A 
ATOM      9  C16 UNL     1      21.907  -6.377 -44.452  0.00  0.00    +0.000 A 
ATOM     10  C17 UNL     1      22.406  -6.492 -43.142  0.00  0.00    +0.000 A 
ATOM     11  C18 UNL     1      23.634  -7.127 -42.970  0.00  0.00    +0.000 A 
ATOM     12  C19 UNL     1      26.444  -8.536 -41.353  0.00  0.00    +0.000 A 
ATOM     13  N5  UNL     1      26.187  -8.327 -40.026  0.00  0.00    +0.000 NA
ATOM     14  H9  UNL     1      26.189  -8.723 -44.223  0.00  0.00    +0.000 HD
ENDROOT
BRANCH  12  15
ATOM     15  C20 UNL     1      27.686  -9.233 -41.749  0.00  0.00    +0.000 A 
ATOM     16  C21 UNL     1      28.503  -8.729 -42.777  0.00  0.00    +0.000 A 
ATOM     17  C22 UNL     1      29.688  -9.387 -43.122  0.00  0.00    +0.000 A 
ATOM     18  C23 UNL     1      30.074 -10.542 -42.435  0.00  0.00    +0.000 A 
ATOM     19  C24 UNL     1      29.279 -11.037 -41.399  0.00  0.00    +0.000 A 
ATOM     20  C25 UNL     1      28.093 -10.382 -41.050  0.00  0.00    +0.000 A 
ENDBRANCH  12  15
BRANCH   1  22
ATOM     21  O1  UNL     1      25.254  -6.440 -37.553  0.00  0.00    +0.000 OA
ATOM     22  C1  UNL     1      24.869  -7.501 -38.118  0.00  0.00    +0.000 C 
ATOM     23  N1  UNL     1      24.255  -8.538 -37.338  0.00  0.00    +0.000 N 
ATOM     24  H1  UNL     1      24.239  -9.511 -37.718  0.00  0.00    +0.000 HD
BRANCH  23  25
ATOM     25  N2  UNL     1      23.956  -8.357 -35.977  0.00  0.00    +0.000 N 
ATOM     26  H2  UNL     1      23.020  -7.968 -35.733  0.00  0.00    +0.000 HD
BRANCH  25  27
ATOM     27  C2  UNL     1      24.925  -8.572 -34.934  0.00  0.00    +0.000 C 
ATOM     28  S1  UNL     1      25.089  -7.501 -33.701  0.00  0.00    +0.000 S 
BRANCH  27  29
ATOM     29  N3  UNL     1      25.788  -9.719 -34.964  0.00  0.00    +0.000 N 
ATOM     30  H3  UNL     1      25.418 -10.621 -34.587  0.00  0.00    +0.000 HD
BRANCH  29  31
ATOM     31  C3  UNL     1      27.122  -9.705 -35.497  0.00  0.00    +0.000 A 
ATOM     32  C4  UNL     1      27.360  -9.961 -36.861  0.00  0.00    +0.000 A 
ATOM     33  C5  UNL     1      28.667  -9.978 -37.359  0.00  0.00    +0.000 A 
ATOM     34  C6  UNL     1      29.745  -9.755 -36.501  0.00  0.00    +0.000 A 
ATOM     35  C7  UNL     1      29.521  -9.521 -35.141  0.00  0.00    +0.000 A 
ATOM     36  C8  UNL     1      28.216  -9.504 -34.638  0.00  0.00    +0.000 A 
ATOM     37  F1  UNL     1      28.015  -9.277 -33.315  0.00  0.00    +0.000 F 
ENDBRANCH  29  31
ENDBRANCH  27  29
ENDBRANCH  25  27
ENDBRANCH  23  25
ENDBRANCH   1  22
TORSDOF 6
ENDMDL
MODEL 6
REMARK VINA RESULT:    -7.503      2.381      2.880
REMARK INTER + INTRA:         -10.655
REMARK INTER:                  -9.515
REMARK INTRA:                  -1.141
REMARK UNBOUND:                -0.521
REMARK  Name = resultss/4CJN/ligands/lig_407_t0.pdb
REMARK  6 active torsions:
REMARK  status: ('A' for Active; 'I' for Inactive)
REMARK    1  A    between atoms: C1_2  and  C9_15
REMARK    2  A    between atoms: N1_3  and  N2_4
REMARK    3  A    between atoms: N2_4  and  C2_5
REMARK    4  A    between atoms: C2_5  and  N3_7
REMARK    5  A    between atoms: N3_7  and  C3_8
REMARK    6  A    between atoms: C19_26  and  C20_27
REMARK                            x       y       z     vdW  Elec       q    Type
REMARK                         _______ _______ _______ _____ _____    ______ ____
ROOT
ATOM      1  C9  UNL     1      27.466  -9.884 -37.721  0.00  0.00    +0.000 A 
ATOM      2  C10 UNL     1      28.734  -9.846 -37.101  0.00  0.00    +0.000 A 
ATOM      3  C11 UNL     1      28.774  -9.497 -35.756  0.00  0.00    +0.000 A 
ATOM      4  C12 UNL     1      27.634  -9.193 -35.044  0.00  0.00    +0.000 A 
ATOM      5  N4  UNL     1      27.918  -8.951 -33.741  0.00  0.00    +0.000 N 
ATOM      6  C13 UNL     1      29.258  -9.087 -33.648  0.00  0.00    +0.000 A 
ATOM      7  C14 UNL     1      30.041  -8.949 -32.503  0.00  0.00    +0.000 A 
ATOM      8  C15 UNL     1      31.428  -9.156 -32.624  0.00  0.00    +0.000 A 
ATOM      9  C16 UNL     1      31.998  -9.499 -33.871  0.00  0.00    +0.000 A 
ATOM     10  C17 UNL     1      31.187  -9.638 -35.012  0.00  0.00    +0.000 A 
ATOM     11  C18 UNL     1      29.819  -9.421 -34.863  0.00  0.00    +0.000 A 
ATOM     12  C19 UNL     1      26.383  -9.220 -35.673  0.00  0.00    +0.000 A 
ATOM     13  N5  UNL     1      26.345  -9.577 -36.993  0.00  0.00    +0.000 NA
ATOM     14  H9  UNL     1      27.255  -8.741 -32.963  0.00  0.00    +0.000 HD
ENDROOT
BRANCH  12  15
ATOM     15  C20 UNL     1      25.123  -8.889 -34.976  0.00  0.00    +0.000 A 
ATOM     16  C21 UNL     1      24.897  -9.304 -33.651  0.00  0.00    +0.000 A 
ATOM     17  C22 UNL     1      23.710  -8.960 -32.997  0.00  0.00    +0.000 A 
ATOM     18  C23 UNL     1      22.746  -8.188 -33.653  0.00  0.00    +0.000 A 
ATOM     19  C24 UNL     1      22.972  -7.754 -34.962  0.00  0.00    +0.000 A 
ATOM     20  C25 UNL     1      24.158  -8.095 -35.620  0.00  0.00    +0.000 A 
ENDBRANCH  12  15
BRANCH   1  22
ATOM     21  O1  UNL     1      28.035 -11.200 -39.613  0.00  0.00    +0.000 OA
ATOM     22  C1  UNL     1      27.330 -10.266 -39.142  0.00  0.00    +0.000 C 
ATOM     23  N1  UNL     1      26.411  -9.569 -39.997  0.00  0.00    +0.000 N 
ATOM     24  H1  UNL     1      26.083  -8.618 -39.715  0.00  0.00    +0.000 HD
BRANCH  23  25
ATOM     25  N2  UNL     1      26.184  -9.978 -41.322  0.00  0.00    +0.000 N 
ATOM     26  H2  UNL     1      26.018 -10.993 -41.494  0.00  0.00    +0.000 HD
BRANCH  25  27
ATOM     27  C2  UNL     1      26.290  -9.080 -42.442  0.00  0.00    +0.000 C 
ATOM     28  S1  UNL     1      24.955  -8.377 -43.088  0.00  0.00    +0.000 S 
BRANCH  27  29
ATOM     29  N3  UNL     1      27.567  -8.799 -43.034  0.00  0.00    +0.000 N 
ATOM     30  H3  UNL     1      27.582  -8.312 -43.959  0.00  0.00    +0.000 HD
BRANCH  29  31
ATOM     31  C3  UNL     1      28.825  -9.132 -42.424  0.00  0.00    +0.000 A 
ATOM     32  C4  UNL     1      29.479 -10.340 -42.728  0.00  0.00    +0.000 A 
ATOM     33  C5  UNL     1      30.686 -10.668 -42.101  0.00  0.00    +0.000 A 
ATOM     34  C6  UNL     1      31.240  -9.801 -41.156  0.00  0.00    +0.000 A 
ATOM     35  C7  UNL     1      30.587  -8.609 -40.831  0.00  0.00    +0.000 A 
ATOM     36  C8  UNL     1      29.380  -8.278 -41.456  0.00  0.00    +0.000 A 
ATOM     37  F1  UNL     1      28.757  -7.118 -41.129  0.00  0.00    +0.000 F 
ENDBRANCH  29  31
ENDBRANCH  27  29
ENDBRANCH  25  27
ENDBRANCH  23  25
ENDBRANCH   1  22
TORSDOF 6
ENDMDL
MODEL 7
REMARK VINA RESULT:    -7.411      4.550      7.492
REMARK INTER + INTRA:         -10.531
REMARK INTER:                  -9.448
REMARK INTRA:                  -1.083
REMARK UNBOUND:                -0.521
REMARK  Name = resultss/4CJN/ligands/lig_407_t0.pdb
REMARK  6 active torsions:
REMARK  status: ('A' for Active; 'I' for Inactive)
REMARK    1  A    between atoms: C1_2  and  C9_15
REMARK    2  A    between atoms: N1_3  and  N2_4
REMARK    3  A    between atoms: N2_4  and  C2_5
REMARK    4  A    between atoms: C2_5  and  N3_7
REMARK    5  A    between atoms: N3_7  and  C3_8
REMARK    6  A    between atoms: C19_26  and  C20_27
REMARK                            x       y       z     vdW  Elec       q    Type
REMARK                         _______ _______ _______ _____ _____    ______ ____
ROOT
ATOM      1  C9  UNL     1      27.703  -9.704 -41.261  0.00  0.00    +0.000 A 
ATOM      2  C10 UNL     1      28.675 -10.018 -42.236  0.00  0.00    +0.000 A 
ATOM      3  C11 UNL     1      30.002 -10.051 -41.823  0.00  0.00    +0.000 A 
ATOM      4  C12 UNL     1      30.372  -9.785 -40.523  0.00  0.00    +0.000 A 
ATOM      5  N4  UNL     1      31.706  -9.944 -40.348  0.00  0.00    +0.000 N 
ATOM      6  C13 UNL     1      32.174 -10.295 -41.565  0.00  0.00    +0.000 A 
ATOM      7  C14 UNL     1      33.494 -10.584 -41.908  0.00  0.00    +0.000 A 
ATOM      8  C15 UNL     1      33.764 -10.951 -43.240  0.00  0.00    +0.000 A 
ATOM      9  C16 UNL     1      32.721 -11.028 -44.190  0.00  0.00    +0.000 A 
ATOM     10  C17 UNL     1      31.395 -10.737 -43.819  0.00  0.00    +0.000 A 
ATOM     11  C18 UNL     1      31.160 -10.370 -42.496  0.00  0.00    +0.000 A 
ATOM     12  C19 UNL     1      29.400  -9.461 -39.568  0.00  0.00    +0.000 A 
ATOM     13  N5  UNL     1      28.094  -9.442 -39.973  0.00  0.00    +0.000 NA
ATOM     14  H9  UNL     1      32.259  -9.855 -39.468  0.00  0.00    +0.000 HD
ENDROOT
BRANCH  12  15
ATOM     15  C20 UNL     1      29.727  -9.146 -38.161  0.00  0.00    +0.000 A 
ATOM     16  C21 UNL     1      29.446 -10.062 -37.130  0.00  0.00    +0.000 A 
ATOM     17  C22 UNL     1      29.785  -9.760 -35.808  0.00  0.00    +0.000 A 
ATOM     18  C23 UNL     1      30.417  -8.551 -35.504  0.00  0.00    +0.000 A 
ATOM     19  C24 UNL     1      30.718  -7.646 -36.524  0.00  0.00    +0.000 A 
ATOM     20  C25 UNL     1      30.382  -7.943 -37.849  0.00  0.00    +0.000 A 
ENDBRANCH  12  15
BRANCH   1  22
ATOM     21  O1  UNL     1      25.398  -9.819 -40.705  0.00  0.00    +0.000 OA
ATOM     22  C1  UNL     1      26.267  -9.668 -41.608  0.00  0.00    +0.000 C 
ATOM     23  N1  UNL     1      25.853  -9.478 -42.968  0.00  0.00    +0.000 N 
ATOM     24  H1  UNL     1      26.533  -9.679 -43.735  0.00  0.00    +0.000 HD
BRANCH  23  25
ATOM     25  N2  UNL     1      24.497  -9.334 -43.312  0.00  0.00    +0.000 N 
ATOM     26  H2  UNL     1      23.968 -10.195 -43.568  0.00  0.00    +0.000 HD
BRANCH  25  27
ATOM     27  C2  UNL     1      23.860  -8.049 -43.437  0.00  0.00    +0.000 C 
ATOM     28  S1  UNL     1      22.323  -7.815 -42.909  0.00  0.00    +0.000 S 
BRANCH  27  29
ATOM     29  N3  UNL     1      24.548  -6.949 -44.052  0.00  0.00    +0.000 N 
ATOM     30  H3  UNL     1      24.607  -6.051 -43.522  0.00  0.00    +0.000 HD
BRANCH  29  31
ATOM     31  C3  UNL     1      25.174  -7.017 -45.344  0.00  0.00    +0.000 A 
ATOM     32  C4  UNL     1      26.575  -6.990 -45.471  0.00  0.00    +0.000 A 
ATOM     33  C5  UNL     1      27.170  -7.021 -46.737  0.00  0.00    +0.000 A 
ATOM     34  C6  UNL     1      26.374  -7.064 -47.883  0.00  0.00    +0.000 A 
ATOM     35  C7  UNL     1      24.981  -7.069 -47.768  0.00  0.00    +0.000 A 
ATOM     36  C8  UNL     1      24.381  -7.037 -46.504  0.00  0.00    +0.000 A 
ATOM     37  F1  UNL     1      23.028  -7.042 -46.409  0.00  0.00    +0.000 F 
ENDBRANCH  29  31
ENDBRANCH  27  29
ENDBRANCH  25  27
ENDBRANCH  23  25
ENDBRANCH   1  22
TORSDOF 6
ENDMDL
MODEL 8
REMARK VINA RESULT:    -7.219      3.038      5.387
REMARK INTER + INTRA:         -10.272
REMARK INTER:                  -9.463
REMARK INTRA:                  -0.808
REMARK UNBOUND:                -0.521
REMARK  Name = resultss/4CJN/ligands/lig_407_t0.pdb
REMARK  6 active torsions:
REMARK  status: ('A' for Active; 'I' for Inactive)
REMARK    1  A    between atoms: C1_2  and  C9_15
REMARK    2  A    between atoms: N1_3  and  N2_4
REMARK    3  A    between atoms: N2_4  and  C2_5
REMARK    4  A    between atoms: C2_5  and  N3_7
REMARK    5  A    between atoms: N3_7  and  C3_8
REMARK    6  A    between atoms: C19_26  and  C20_27
REMARK                            x       y       z     vdW  Elec       q    Type
REMARK                         _______ _______ _______ _____ _____    ______ ____
ROOT
ATOM      1  C9  UNL     1      29.382  -9.400 -39.581  0.00  0.00    +0.000 A 
ATOM      2  C10 UNL     1      28.526  -9.421 -40.704  0.00  0.00    +0.000 A 
ATOM      3  C11 UNL     1      27.179  -9.162 -40.480  0.00  0.00    +0.000 A 
ATOM      4  C12 UNL     1      26.682  -8.901 -39.221  0.00  0.00    +0.000 A 
ATOM      5  N4  UNL     1      25.358  -8.615 -39.264  0.00  0.00    +0.000 N 
ATOM      6  C13 UNL     1      25.024  -8.720 -40.568  0.00  0.00    +0.000 A 
ATOM      7  C14 UNL     1      23.769  -8.508 -41.136  0.00  0.00    +0.000 A 
ATOM      8  C15 UNL     1      23.643  -8.651 -42.530  0.00  0.00    +0.000 A 
ATOM      9  C16 UNL     1      24.762  -8.994 -43.322  0.00  0.00    +0.000 A 
ATOM     10  C17 UNL     1      26.021  -9.198 -42.728  0.00  0.00    +0.000 A 
ATOM     11  C18 UNL     1      26.114  -9.055 -41.345  0.00  0.00    +0.000 A 
ATOM     12  C19 UNL     1      27.538  -8.898 -38.113  0.00  0.00    +0.000 A 
ATOM     13  N5  UNL     1      28.866  -9.138 -38.338  0.00  0.00    +0.000 NA
ATOM     14  H9  UNL     1      24.730  -8.337 -38.479  0.00  0.00    +0.000 HD
ENDROOT
BRANCH  12  15
ATOM     15  C20 UNL     1      27.072  -8.644 -36.734  0.00  0.00    +0.000 A 
ATOM     16  C21 UNL     1      26.723  -9.706 -35.880  0.00  0.00    +0.000 A 
ATOM     17  C22 UNL     1      26.308  -9.450 -34.570  0.00  0.00    +0.000 A 
ATOM     18  C23 UNL     1      26.251  -8.136 -34.097  0.00  0.00    +0.000 A 
ATOM     19  C24 UNL     1      26.616  -7.076 -34.932  0.00  0.00    +0.000 A 
ATOM     20  C25 UNL     1      27.032  -7.328 -36.243  0.00  0.00    +0.000 A 
ENDBRANCH  12  15
BRANCH   1  22
ATOM     21  O1  UNL     1      31.566  -9.719 -38.707  0.00  0.00    +0.000 OA
ATOM     22  C1  UNL     1      30.832  -9.643 -39.731  0.00  0.00    +0.000 C 
ATOM     23  N1  UNL     1      31.416  -9.777 -41.035  0.00  0.00    +0.000 N 
ATOM     24  H1  UNL     1      30.899  -9.398 -41.860  0.00  0.00    +0.000 HD
BRANCH  23  25
ATOM     25  N2  UNL     1      32.771 -10.113 -41.205  0.00  0.00    +0.000 N 
ATOM     26  H2  UNL     1      33.468  -9.640 -40.589  0.00  0.00    +0.000 HD
BRANCH  25  27
ATOM     27  C2  UNL     1      33.230 -10.978 -42.259  0.00  0.00    +0.000 C 
ATOM     28  S1  UNL     1      34.380 -12.115 -41.975  0.00  0.00    +0.000 S 
BRANCH  27  29
ATOM     29  N3  UNL     1      32.710 -10.847 -43.590  0.00  0.00    +0.000 N 
ATOM     30  H3  UNL     1      32.092 -10.029 -43.796  0.00  0.00    +0.000 HD
BRANCH  29  31
ATOM     31  C3  UNL     1      33.001 -11.762 -44.659  0.00  0.00    +0.000 A 
ATOM     32  C4  UNL     1      33.876 -11.403 -45.702  0.00  0.00    +0.000 A 
ATOM     33  C5  UNL     1      34.123 -12.290 -46.754  0.00  0.00    +0.000 A 
ATOM     34  C6  UNL     1      33.491 -13.535 -46.782  0.00  0.00    +0.000 A 
ATOM     35  C7  UNL     1      32.604 -13.893 -45.763  0.00  0.00    +0.000 A 
ATOM     36  C8  UNL     1      32.352 -13.008 -44.709  0.00  0.00    +0.000 A 
ATOM     37  F1  UNL     1      31.488 -13.369 -43.727  0.00  0.00    +0.000 F 
ENDBRANCH  29  31
ENDBRANCH  27  29
ENDBRANCH  25  27
ENDBRANCH  23  25
ENDBRANCH   1  22
TORSDOF 6
ENDMDL
MODEL 9
REMARK VINA RESULT:    -7.219      3.786      9.713
REMARK INTER + INTRA:         -10.272
REMARK INTER:                  -9.035
REMARK INTRA:                  -1.237
REMARK UNBOUND:                -0.521
REMARK  Name = resultss/4CJN/ligands/lig_407_t0.pdb
REMARK  6 active torsions:
REMARK  status: ('A' for Active; 'I' for Inactive)
REMARK    1  A    between atoms: C1_2  and  C9_15
REMARK    2  A    between atoms: N1_3  and  N2_4
REMARK    3  A    between atoms: N2_4  and  C2_5
REMARK    4  A    between atoms: C2_5  and  N3_7
REMARK    5  A    between atoms: N3_7  and  C3_8
REMARK    6  A    between atoms: C19_26  and  C20_27
REMARK                            x       y       z     vdW  Elec       q    Type
REMARK                         _______ _______ _______ _____ _____    ______ ____
ROOT
ATOM      1  C9  UNL     1      27.758  -9.570 -39.826  0.00  0.00    +0.000 A 
ATOM      2  C10 UNL     1      27.070  -8.651 -40.649  0.00  0.00    +0.000 A 
ATOM      3  C11 UNL     1      27.603  -8.402 -41.908  0.00  0.00    +0.000 A 
ATOM      4  C12 UNL     1      28.757  -9.013 -42.349  0.00  0.00    +0.000 A 
ATOM      5  N4  UNL     1      29.041  -8.664 -43.628  0.00  0.00    +0.000 N 
ATOM      6  C13 UNL     1      28.057  -7.808 -43.978  0.00  0.00    +0.000 A 
ATOM      7  C14 UNL     1      27.892  -7.174 -45.209  0.00  0.00    +0.000 A 
ATOM      8  C15 UNL     1      26.777  -6.330 -45.371  0.00  0.00    +0.000 A 
ATOM      9  C16 UNL     1      25.857  -6.143 -44.315  0.00  0.00    +0.000 A 
ATOM     10  C17 UNL     1      26.041  -6.797 -43.084  0.00  0.00    +0.000 A 
ATOM     11  C18 UNL     1      27.157  -7.621 -42.950  0.00  0.00    +0.000 A 
ATOM     12  C19 UNL     1      29.439  -9.911 -41.519  0.00  0.00    +0.000 A 
ATOM     13  N5  UNL     1      28.905 -10.165 -40.285  0.00  0.00    +0.000 NA
ATOM     14  H9  UNL     1      29.820  -9.002 -44.233  0.00  0.00    +0.000 HD
ENDROOT
BRANCH  12  15
ATOM     15  C20 UNL     1      30.691 -10.587 -41.919  0.00  0.00    +0.000 A 
ATOM     16  C21 UNL     1      30.665 -11.758 -42.699  0.00  0.00    +0.000 A 
ATOM     17  C22 UNL     1      31.858 -12.371 -43.091  0.00  0.00    +0.000 A 
ATOM     18  C23 UNL     1      33.086 -11.815 -42.721  0.00  0.00    +0.000 A 
ATOM     19  C24 UNL     1      33.122 -10.641 -41.965  0.00  0.00    +0.000 A 
ATOM     20  C25 UNL     1      31.930 -10.024 -41.571  0.00  0.00    +0.000 A 
ENDBRANCH  12  15
BRANCH   1  22
ATOM     21  O1  UNL     1      27.731 -10.895 -37.857  0.00  0.00    +0.000 OA
ATOM     22  C1  UNL     1      27.250  -9.909 -38.481  0.00  0.00    +0.000 C 
ATOM     23  N1  UNL     1      26.200  -9.135 -37.884  0.00  0.00    +0.000 N 
ATOM     24  H1  UNL     1      25.591  -8.551 -38.500  0.00  0.00    +0.000 HD
BRANCH  23  25
ATOM     25  N2  UNL     1      25.771  -9.369 -36.565  0.00  0.00    +0.000 N 
ATOM     26  H2  UNL     1      25.255 -10.255 -36.374  0.00  0.00    +0.000 HD
BRANCH  25  27
ATOM     27  C2  UNL     1      25.911  -8.392 -35.518  0.00  0.00    +0.000 C 
ATOM     28  S1  UNL     1      24.636  -7.986 -34.568  0.00  0.00    +0.000 S 
BRANCH  27  29
ATOM     29  N3  UNL     1      27.167  -7.731 -35.298  0.00  0.00    +0.000 N 
ATOM     30  H3  UNL     1      27.230  -6.713 -35.525  0.00  0.00    +0.000 HD
BRANCH  29  31
ATOM     31  C3  UNL     1      28.334  -8.382 -34.771  0.00  0.00    +0.000 A 
ATOM     32  C4  UNL     1      29.369  -8.814 -35.621  0.00  0.00    +0.000 A 
ATOM     33  C5  UNL     1      30.483  -9.478 -35.097  0.00  0.00    +0.000 A 
ATOM     34  C6  UNL     1      30.567  -9.728 -33.726  0.00  0.00    +0.000 A 
ATOM     35  C7  UNL     1      29.535  -9.322 -32.876  0.00  0.00    +0.000 A 
ATOM     36  C8  UNL     1      28.418  -8.659 -33.395  0.00  0.00    +0.000 A 
ATOM     37  F1  UNL     1      27.423  -8.272 -32.557  0.00  0.00    +0.000 F 
ENDBRANCH  29  31
ENDBRANCH  27  29
ENDBRANCH  25  27
ENDBRANCH  23  25
ENDBRANCH   1  22
TORSDOF 6
ENDMDL
