MODEL 1
REMARK VINA RESULT:    -6.660      0.000      0.000
REMARK INTER + INTRA:          -8.697
REMARK INTER:                  -8.802
REMARK INTRA:                   0.105
REMARK UNBOUND:                 0.105
REMARK  Name = resultss/4CJN/ligands/lig_370_t0.pdb
REMARK  8 active torsions:
REMARK  status: ('A' for Active; 'I' for Inactive)
REMARK    1  A    between atoms: C1_1  and  O1_2
REMARK    2  A    between atoms: O1_2  and  C2_3
REMARK    3  A    between atoms: C5_6  and  C6_7
REMARK    4  A    between atoms: C6_7  and  C7_8
REMARK    5  A    between atoms: C6_7  and  C16_21
REMARK    6  A    between atoms: C8_9  and  O2_10
REMARK    7  A    between atoms: C17_22  and  O5_23
REMARK    8  A    between atoms: C26_35  and  O8_36
REMARK                            x       y       z     vdW  Elec       q    Type
REMARK                         _______ _______ _______ _____ _____    ______ ____
ROOT
ATOM      1  C6  UNL     1      28.240  -8.081 -40.150  0.00  0.00    +0.000 C 
ENDROOT
BRANCH   1   2
ATOM      2  C7  UNL     1      27.795  -8.547 -38.757  0.00  0.00    +0.000 A 
ATOM      3  C8  UNL     1      27.431  -7.592 -37.781  0.00  0.00    +0.000 A 
ATOM      4  C9  UNL     1      27.024  -8.026 -36.497  0.00  0.00    +0.000 A 
ATOM      5  C10 UNL     1      26.690  -7.143 -35.447  0.00  0.00    +0.000 A 
ATOM      6  C11 UNL     1      26.292  -7.642 -34.201  0.00  0.00    +0.000 A 
ATOM      7 CL1  UNL     1      25.881  -6.534 -32.904  0.00  0.00    +0.000 Cl
ATOM      8  C12 UNL     1      26.223  -9.019 -33.985  0.00  0.00    +0.000 A 
ATOM      9  C13 UNL     1      26.553  -9.905 -35.010  0.00  0.00    +0.000 A 
ATOM     10  C14 UNL     1      26.954  -9.419 -36.259  0.00  0.00    +0.000 A 
ATOM     11  O3  UNL     1      27.259 -10.283 -37.216  0.00  0.00    +0.000 OA
ATOM     12  C15 UNL     1      27.658  -9.916 -38.426  0.00  0.00    +0.000 A 
ATOM     13  O4  UNL     1      27.896 -10.814 -39.273  0.00  0.00    +0.000 OA
BRANCH   3  14
ATOM     14  O2  UNL     1      27.477  -6.235 -38.126  0.00  0.00    +0.000 OA
ATOM     15  H7  UNL     1      26.780  -5.550 -37.871  0.00  0.00    +0.000 HD
ENDBRANCH   3  14
ENDBRANCH   1   2
BRANCH   1  16
ATOM     16  C16 UNL     1      29.526  -8.768 -40.636  0.00  0.00    +0.000 A 
ATOM     17  C17 UNL     1      29.534  -9.871 -41.530  0.00  0.00    +0.000 A 
ATOM     18  C18 UNL     1      30.774 -10.421 -41.939  0.00  0.00    +0.000 A 
ATOM     19  C19 UNL     1      30.884 -11.482 -42.867  0.00  0.00    +0.000 A 
ATOM     20  C20 UNL     1      32.140 -11.986 -43.221  0.00  0.00    +0.000 A 
ATOM     21 CL2  UNL     1      32.263 -13.303 -44.375  0.00  0.00    +0.000 Cl
ATOM     22  C21 UNL     1      33.299 -11.443 -42.665  0.00  0.00    +0.000 A 
ATOM     23  C22 UNL     1      33.208 -10.390 -41.753  0.00  0.00    +0.000 A 
ATOM     24  C23 UNL     1      31.959  -9.876 -41.392  0.00  0.00    +0.000 A 
ATOM     25  O6  UNL     1      31.904  -8.874 -40.527  0.00  0.00    +0.000 OA
ATOM     26  C24 UNL     1      30.767  -8.316 -40.135  0.00  0.00    +0.000 A 
ATOM     27  O7  UNL     1      30.816  -7.373 -39.301  0.00  0.00    +0.000 OA
BRANCH  17  28
ATOM     28  O5  UNL     1      28.315 -10.402 -41.965  0.00  0.00    +0.000 OA
ATOM     29  H11 UNL     1      27.414 -10.192 -41.563  0.00  0.00    +0.000 HD
ENDBRANCH  17  28
ENDBRANCH   1  16
BRANCH   1  33
ATOM     30  C2  UNL     1      24.947  -7.973 -42.994  0.00  0.00    +0.000 A 
ATOM     31  C3  UNL     1      26.205  -7.463 -43.362  0.00  0.00    +0.000 A 
ATOM     32  C4  UNL     1      27.274  -7.496 -42.464  0.00  0.00    +0.000 A 
ATOM     33  C5  UNL     1      27.112  -8.044 -41.175  0.00  0.00    +0.000 A 
ATOM     34  C25 UNL     1      25.850  -8.547 -40.813  0.00  0.00    +0.000 A 
ATOM     35  C26 UNL     1      24.776  -8.513 -41.713  0.00  0.00    +0.000 A 
BRANCH  30  37
ATOM     36  C1  UNL     1      23.893  -7.484 -45.209  0.00  0.00    +0.000 C 
ATOM     37  O1  UNL     1      23.848  -7.957 -43.867  0.00  0.00    +0.000 OA
ENDBRANCH  30  37
BRANCH  35  38
ATOM     38  O8  UNL     1      23.531  -9.015 -41.339  0.00  0.00    +0.000 OA
ATOM     39  H16 UNL     1      22.785  -8.406 -41.024  0.00  0.00    +0.000 HD
ENDBRANCH  35  38
ENDBRANCH   1  33
TORSDOF 7
ENDMDL
MODEL 2
REMARK VINA RESULT:    -6.571      2.555      6.115
REMARK INTER + INTRA:          -8.579
REMARK INTER:                  -8.792
REMARK INTRA:                   0.213
REMARK UNBOUND:                 0.105
REMARK  Name = resultss/4CJN/ligands/lig_370_t0.pdb
REMARK  8 active torsions:
REMARK  status: ('A' for Active; 'I' for Inactive)
REMARK    1  A    between atoms: C1_1  and  O1_2
REMARK    2  A    between atoms: O1_2  and  C2_3
REMARK    3  A    between atoms: C5_6  and  C6_7
REMARK    4  A    between atoms: C6_7  and  C7_8
REMARK    5  A    between atoms: C6_7  and  C16_21
REMARK    6  A    between atoms: C8_9  and  O2_10
REMARK    7  A    between atoms: C17_22  and  O5_23
REMARK    8  A    between atoms: C26_35  and  O8_36
REMARK                            x       y       z     vdW  Elec       q    Type
REMARK                         _______ _______ _______ _____ _____    ______ ____
ROOT
ATOM      1  C6  UNL     1      28.928 -10.095 -40.955  0.00  0.00    +0.000 C 
ENDROOT
BRANCH   1   2
ATOM      2  C7  UNL     1      29.200  -9.268 -39.691  0.00  0.00    +0.000 A 
ATOM      3  C8  UNL     1      28.937  -9.825 -38.418  0.00  0.00    +0.000 A 
ATOM      4  C9  UNL     1      29.187  -9.058 -37.256  0.00  0.00    +0.000 A 
ATOM      5  C10 UNL     1      28.909  -9.514 -35.948  0.00  0.00    +0.000 A 
ATOM      6  C11 UNL     1      29.185  -8.704 -34.841  0.00  0.00    +0.000 A 
ATOM      7 CL1  UNL     1      28.834  -9.283 -33.222  0.00  0.00    +0.000 Cl
ATOM      8  C12 UNL     1      29.736  -7.434 -35.019  0.00  0.00    +0.000 A 
ATOM      9  C13 UNL     1      30.013  -6.967 -36.304  0.00  0.00    +0.000 A 
ATOM     10  C14 UNL     1      29.740  -7.766 -37.418  0.00  0.00    +0.000 A 
ATOM     11  O3  UNL     1      30.016  -7.298 -38.627  0.00  0.00    +0.000 OA
ATOM     12  C15 UNL     1      29.783  -7.980 -39.740  0.00  0.00    +0.000 A 
ATOM     13  O4  UNL     1      30.108  -7.458 -40.838  0.00  0.00    +0.000 OA
BRANCH   3  14
ATOM     14  O2  UNL     1      28.444 -11.134 -38.353  0.00  0.00    +0.000 OA
ATOM     15  H7  UNL     1      27.466 -11.381 -38.306  0.00  0.00    +0.000 HD
ENDBRANCH   3  14
ENDBRANCH   1   2
BRANCH   1  16
ATOM     16  C16 UNL     1      27.852  -9.477 -41.861  0.00  0.00    +0.000 A 
ATOM     17  C17 UNL     1      28.150  -8.676 -42.996  0.00  0.00    +0.000 A 
ATOM     18  C18 UNL     1      27.087  -8.171 -43.785  0.00  0.00    +0.000 A 
ATOM     19  C19 UNL     1      27.286  -7.413 -44.960  0.00  0.00    +0.000 A 
ATOM     20  C20 UNL     1      26.191  -6.935 -45.689  0.00  0.00    +0.000 A 
ATOM     21 CL2  UNL     1      26.451  -5.995 -47.149  0.00  0.00    +0.000 Cl
ATOM     22  C21 UNL     1      24.890  -7.206 -45.263  0.00  0.00    +0.000 A 
ATOM     23  C22 UNL     1      24.676  -7.960 -44.109  0.00  0.00    +0.000 A 
ATOM     24  C23 UNL     1      25.761  -8.445 -43.372  0.00  0.00    +0.000 A 
ATOM     25  O6  UNL     1      25.528  -9.160 -42.282  0.00  0.00    +0.000 OA
ATOM     26  C24 UNL     1      26.493  -9.670 -41.530  0.00  0.00    +0.000 A 
ATOM     27  O7  UNL     1      26.171 -10.330 -40.506  0.00  0.00    +0.000 OA
BRANCH  17  28
ATOM     28  O5  UNL     1      29.486  -8.387 -43.291  0.00  0.00    +0.000 OA
ATOM     29  H11 UNL     1      29.972  -7.547 -43.015  0.00  0.00    +0.000 HD
ENDBRANCH  17  28
ENDBRANCH   1  16
BRANCH   1  33
ATOM     30  C2  UNL     1      32.594 -11.348 -42.936  0.00  0.00    +0.000 A 
ATOM     31  C3  UNL     1      31.360 -11.884 -43.347  0.00  0.00    +0.000 A 
ATOM     32  C4  UNL     1      30.174 -11.487 -42.726  0.00  0.00    +0.000 A 
ATOM     33  C5  UNL     1      30.192 -10.541 -41.681  0.00  0.00    +0.000 A 
ATOM     34  C25 UNL     1      31.430 -10.014 -41.273  0.00  0.00    +0.000 A 
ATOM     35  C26 UNL     1      32.622 -10.413 -41.894  0.00  0.00    +0.000 A 
BRANCH  30  37
ATOM     36  C1  UNL     1      33.988 -12.886 -44.333  0.00  0.00    +0.000 C 
ATOM     37  O1  UNL     1      33.808 -11.721 -43.534  0.00  0.00    +0.000 OA
ENDBRANCH  30  37
BRANCH  35  38
ATOM     38  O8  UNL     1      33.842  -9.881 -41.479  0.00  0.00    +0.000 OA
ATOM     39  H16 UNL     1      34.286  -9.119 -41.978  0.00  0.00    +0.000 HD
ENDBRANCH  35  38
ENDBRANCH   1  33
TORSDOF 7
ENDMDL
MODEL 3
REMARK VINA RESULT:    -5.811      1.668      7.109
REMARK INTER + INTRA:          -7.574
REMARK INTER:                  -8.601
REMARK INTRA:                   1.027
REMARK UNBOUND:                 0.105
REMARK  Name = resultss/4CJN/ligands/lig_370_t0.pdb
REMARK  8 active torsions:
REMARK  status: ('A' for Active; 'I' for Inactive)
REMARK    1  A    between atoms: C1_1  and  O1_2
REMARK    2  A    between atoms: O1_2  and  C2_3
REMARK    3  A    between atoms: C5_6  and  C6_7
REMARK    4  A    between atoms: C6_7  and  C7_8
REMARK    5  A    between atoms: C6_7  and  C16_21
REMARK    6  A    between atoms: C8_9  and  O2_10
REMARK    7  A    between atoms: C17_22  and  O5_23
REMARK    8  A    between atoms: C26_35  and  O8_36
REMARK                            x       y       z     vdW  Elec       q    Type
REMARK                         _______ _______ _______ _____ _____    ______ ____
ROOT
ATOM      1  C6  UNL     1      27.208  -9.540 -39.557  0.00  0.00    +0.000 C 
ENDROOT
BRANCH   1   2
ATOM      2  C7  UNL     1      28.688  -9.153 -39.687  0.00  0.00    +0.000 A 
ATOM      3  C8  UNL     1      29.559  -9.960 -40.454  0.00  0.00    +0.000 A 
ATOM      4  C9  UNL     1      30.923  -9.600 -40.569  0.00  0.00    +0.000 A 
ATOM      5  C10 UNL     1      31.874 -10.371 -41.273  0.00  0.00    +0.000 A 
ATOM      6  C11 UNL     1      33.208  -9.954 -41.350  0.00  0.00    +0.000 A 
ATOM      7 CL1  UNL     1      34.379 -10.923 -42.226  0.00  0.00    +0.000 Cl
ATOM      8  C12 UNL     1      33.611  -8.771 -40.729  0.00  0.00    +0.000 A 
ATOM      9  C13 UNL     1      32.686  -8.000 -40.027  0.00  0.00    +0.000 A 
ATOM     10  C14 UNL     1      31.350  -8.407 -39.941  0.00  0.00    +0.000 A 
ATOM     11  O3  UNL     1      30.491  -7.653 -39.270  0.00  0.00    +0.000 OA
ATOM     12  C15 UNL     1      29.210  -7.963 -39.127  0.00  0.00    +0.000 A 
ATOM     13  O4  UNL     1      28.471  -7.165 -38.496  0.00  0.00    +0.000 OA
BRANCH   3  14
ATOM     14  O2  UNL     1      29.034 -11.093 -41.088  0.00  0.00    +0.000 OA
ATOM     15  H7  UNL     1      29.533 -11.667 -41.752  0.00  0.00    +0.000 HD
ENDBRANCH   3  14
ENDBRANCH   1   2
BRANCH   1  16
ATOM     16  C16 UNL     1      26.662  -9.372 -38.130  0.00  0.00    +0.000 A 
ATOM     17  C17 UNL     1      25.627  -8.461 -37.791  0.00  0.00    +0.000 A 
ATOM     18  C18 UNL     1      25.175  -8.395 -36.450  0.00  0.00    +0.000 A 
ATOM     19  C19 UNL     1      24.115  -7.561 -36.029  0.00  0.00    +0.000 A 
ATOM     20  C20 UNL     1      23.723  -7.537 -34.686  0.00  0.00    +0.000 A 
ATOM     21 CL2  UNL     1      22.404  -6.497 -34.175  0.00  0.00    +0.000 Cl
ATOM     22  C21 UNL     1      24.373  -8.341 -33.748  0.00  0.00    +0.000 A 
ATOM     23  C22 UNL     1      25.417  -9.176 -34.150  0.00  0.00    +0.000 A 
ATOM     24  C23 UNL     1      25.817  -9.211 -35.489  0.00  0.00    +0.000 A 
ATOM     25  O6  UNL     1      26.808 -10.015 -35.841  0.00  0.00    +0.000 OA
ATOM     26  C24 UNL     1      27.246 -10.123 -37.088  0.00  0.00    +0.000 A 
ATOM     27  O7  UNL     1      28.202 -10.910 -37.323  0.00  0.00    +0.000 OA
BRANCH  17  28
ATOM     28  O5  UNL     1      25.098  -7.633 -38.786  0.00  0.00    +0.000 OA
ATOM     29  H11 UNL     1      25.598  -6.888 -39.248  0.00  0.00    +0.000 HD
ENDBRANCH  17  28
ENDBRANCH   1  16
BRANCH   1  33
ATOM     30  C2  UNL     1      24.596  -7.938 -42.647  0.00  0.00    +0.000 A 
ATOM     31  C3  UNL     1      25.632  -7.141 -42.126  0.00  0.00    +0.000 A 
ATOM     32  C4  UNL     1      26.483  -7.643 -41.139  0.00  0.00    +0.000 A 
ATOM     33  C5  UNL     1      26.322  -8.956 -40.651  0.00  0.00    +0.000 A 
ATOM     34  C25 UNL     1      25.281  -9.743 -41.173  0.00  0.00    +0.000 A 
ATOM     35  C26 UNL     1      24.425  -9.241 -42.163  0.00  0.00    +0.000 A 
BRANCH  30  37
ATOM     36  C1  UNL     1      24.134  -6.901 -44.877  0.00  0.00    +0.000 C 
ATOM     37  O1  UNL     1      23.720  -7.470 -43.639  0.00  0.00    +0.000 OA
ENDBRANCH  30  37
BRANCH  35  38
ATOM     38  O8  UNL     1      23.397 -10.034 -42.671  0.00  0.00    +0.000 OA
ATOM     39  H16 UNL     1      23.583 -10.796 -43.314  0.00  0.00    +0.000 HD
ENDBRANCH  35  38
ENDBRANCH   1  33
TORSDOF 7
ENDMDL
MODEL 4
REMARK VINA RESULT:    -5.737      1.985      2.538
REMARK INTER + INTRA:          -7.477
REMARK INTER:                  -9.083
REMARK INTRA:                   1.606
REMARK UNBOUND:                 0.105
REMARK  Name = resultss/4CJN/ligands/lig_370_t0.pdb
REMARK  8 active torsions:
REMARK  status: ('A' for Active; 'I' for Inactive)
REMARK    1  A    between atoms: C1_1  and  O1_2
REMARK    2  A    between atoms: O1_2  and  C2_3
REMARK    3  A    between atoms: C5_6  and  C6_7
REMARK    4  A    between atoms: C6_7  and  C7_8
REMARK    5  A    between atoms: C6_7  and  C16_21
REMARK    6  A    between atoms: C8_9  and  O2_10
REMARK    7  A    between atoms: C17_22  and  O5_23
REMARK    8  A    between atoms: C26_35  and  O8_36
REMARK                            x       y       z     vdW  Elec       q    Type
REMARK                         _______ _______ _______ _____ _____    ______ ____
ROOT
ATOM      1  C6  UNL     1      27.588  -8.585 -40.206  0.00  0.00    +0.000 C 
ENDROOT
BRANCH   1   2
ATOM      2  C7  UNL     1      27.467  -8.881 -38.705  0.00  0.00    +0.000 A 
ATOM      3  C8  UNL     1      28.618  -8.834 -37.885  0.00  0.00    +0.000 A 
ATOM      4  C9  UNL     1      28.501  -9.111 -36.503  0.00  0.00    +0.000 A 
ATOM      5  C10 UNL     1      29.602  -9.135 -35.619  0.00  0.00    +0.000 A 
ATOM      6  C11 UNL     1      29.415  -9.412 -34.259  0.00  0.00    +0.000 A 
ATOM      7 CL1  UNL     1      30.792  -9.440 -33.173  0.00  0.00    +0.000 Cl
ATOM      8  C12 UNL     1      28.135  -9.671 -33.765  0.00  0.00    +0.000 A 
ATOM      9  C13 UNL     1      27.038  -9.656 -34.625  0.00  0.00    +0.000 A 
ATOM     10  C14 UNL     1      27.212  -9.381 -35.986  0.00  0.00    +0.000 A 
ATOM     11  O3  UNL     1      26.152  -9.370 -36.780  0.00  0.00    +0.000 OA
ATOM     12  C15 UNL     1      26.221  -9.130 -38.081  0.00  0.00    +0.000 A 
ATOM     13  O4  UNL     1      25.151  -9.112 -38.743  0.00  0.00    +0.000 OA
BRANCH   3  14
ATOM     14  O2  UNL     1      29.844  -8.501 -38.476  0.00  0.00    +0.000 OA
ATOM     15  H7  UNL     1      30.015  -7.669 -39.020  0.00  0.00    +0.000 HD
ENDBRANCH   3  14
ENDBRANCH   1   2
BRANCH   1  16
ATOM     16  C16 UNL     1      28.481  -9.591 -40.950  0.00  0.00    +0.000 A 
ATOM     17  C17 UNL     1      29.419  -9.215 -41.948  0.00  0.00    +0.000 A 
ATOM     18  C18 UNL     1      30.214 -10.214 -42.561  0.00  0.00    +0.000 A 
ATOM     19  C19 UNL     1      31.211  -9.932 -43.522  0.00  0.00    +0.000 A 
ATOM     20  C20 UNL     1      31.956 -10.968 -44.097  0.00  0.00    +0.000 A 
ATOM     21 CL2  UNL     1      33.192 -10.603 -45.289  0.00  0.00    +0.000 Cl
ATOM     22  C21 UNL     1      31.724 -12.292 -43.723  0.00  0.00    +0.000 A 
ATOM     23  C22 UNL     1      30.749 -12.587 -42.770  0.00  0.00    +0.000 A 
ATOM     24  C23 UNL     1      29.999 -11.562 -42.187  0.00  0.00    +0.000 A 
ATOM     25  O6  UNL     1      29.082 -11.872 -41.282  0.00  0.00    +0.000 OA
ATOM     26  C24 UNL     1      28.334 -10.966 -40.669  0.00  0.00    +0.000 A 
ATOM     27  O7  UNL     1      27.481 -11.360 -39.828  0.00  0.00    +0.000 OA
BRANCH  17  28
ATOM     28  O5  UNL     1      29.516  -7.870 -42.318  0.00  0.00    +0.000 OA
ATOM     29  H11 UNL     1      29.443  -7.088 -41.686  0.00  0.00    +0.000 HD
ENDBRANCH  17  28
ENDBRANCH   1  16
BRANCH   1  33
ATOM     30  C2  UNL     1      23.755  -7.856 -42.134  0.00  0.00    +0.000 A 
ATOM     31  C3  UNL     1      24.389  -6.819 -41.425  0.00  0.00    +0.000 A 
ATOM     32  C4  UNL     1      25.623  -7.035 -40.806  0.00  0.00    +0.000 A 
ATOM     33  C5  UNL     1      26.255  -8.292 -40.885  0.00  0.00    +0.000 A 
ATOM     34  C25 UNL     1      25.613  -9.324 -41.591  0.00  0.00    +0.000 A 
ATOM     35  C26 UNL     1      24.374  -9.110 -42.211  0.00  0.00    +0.000 A 
BRANCH  30  37
ATOM     36  C1  UNL     1      22.351  -7.153 -44.081  0.00  0.00    +0.000 C 
ATOM     37  O1  UNL     1      22.516  -7.679 -42.768  0.00  0.00    +0.000 OA
ENDBRANCH  30  37
BRANCH  35  38
ATOM     38  O8  UNL     1      23.750 -10.143 -42.907  0.00  0.00    +0.000 OA
ATOM     39  H16 UNL     1      22.795 -10.418 -42.706  0.00  0.00    +0.000 HD
ENDBRANCH  35  38
ENDBRANCH   1  33
TORSDOF 7
ENDMDL
MODEL 5
REMARK VINA RESULT:    -5.554      3.296      6.969
REMARK INTER + INTRA:          -7.235
REMARK INTER:                  -7.381
REMARK INTRA:                   0.146
REMARK UNBOUND:                 0.105
REMARK  Name = resultss/4CJN/ligands/lig_370_t0.pdb
REMARK  8 active torsions:
REMARK  status: ('A' for Active; 'I' for Inactive)
REMARK    1  A    between atoms: C1_1  and  O1_2
REMARK    2  A    between atoms: O1_2  and  C2_3
REMARK    3  A    between atoms: C5_6  and  C6_7
REMARK    4  A    between atoms: C6_7  and  C7_8
REMARK    5  A    between atoms: C6_7  and  C16_21
REMARK    6  A    between atoms: C8_9  and  O2_10
REMARK    7  A    between atoms: C17_22  and  O5_23
REMARK    8  A    between atoms: C26_35  and  O8_36
REMARK                            x       y       z     vdW  Elec       q    Type
REMARK                         _______ _______ _______ _____ _____    ______ ____
ROOT
ATOM      1  C6  UNL     1      29.893  -8.661 -41.405  0.00  0.00    +0.000 C 
ENDROOT
BRANCH   1   2
ATOM      2  C7  UNL     1      28.400  -8.846 -41.709  0.00  0.00    +0.000 A 
ATOM      3  C8  UNL     1      27.765  -7.998 -42.647  0.00  0.00    +0.000 A 
ATOM      4  C9  UNL     1      26.389  -8.171 -42.923  0.00  0.00    +0.000 A 
ATOM      5  C10 UNL     1      25.663  -7.342 -43.807  0.00  0.00    +0.000 A 
ATOM      6  C11 UNL     1      24.301  -7.572 -44.037  0.00  0.00    +0.000 A 
ATOM      7 CL1  UNL     1      23.411  -6.533 -45.136  0.00  0.00    +0.000 Cl
ATOM      8  C12 UNL     1      23.647  -8.622 -43.392  0.00  0.00    +0.000 A 
ATOM      9  C13 UNL     1      24.348  -9.447 -42.514  0.00  0.00    +0.000 A 
ATOM     10  C14 UNL     1      25.708  -9.228 -42.274  0.00  0.00    +0.000 A 
ATOM     11  O3  UNL     1      26.350 -10.029 -41.437  0.00  0.00    +0.000 OA
ATOM     12  C15 UNL     1      27.635  -9.892 -41.141  0.00  0.00    +0.000 A 
ATOM     13  O4  UNL     1      28.159 -10.724 -40.356  0.00  0.00    +0.000 OA
BRANCH   3  14
ATOM     14  O2  UNL     1      28.534  -7.015 -43.284  0.00  0.00    +0.000 OA
ATOM     15  H7  UNL     1      29.518  -7.097 -43.493  0.00  0.00    +0.000 HD
ENDBRANCH   3  14
ENDBRANCH   1   2
BRANCH   1  16
ATOM     16  C16 UNL     1      30.164  -8.224 -39.956  0.00  0.00    +0.000 A 
ATOM     17  C17 UNL     1      30.411  -9.137 -38.897  0.00  0.00    +0.000 A 
ATOM     18  C18 UNL     1      30.676  -8.635 -37.599  0.00  0.00    +0.000 A 
ATOM     19  C19 UNL     1      30.986  -9.463 -36.496  0.00  0.00    +0.000 A 
ATOM     20  C20 UNL     1      31.228  -8.903 -35.236  0.00  0.00    +0.000 A 
ATOM     21 CL2  UNL     1      31.613  -9.942 -33.874  0.00  0.00    +0.000 Cl
ATOM     22  C21 UNL     1      31.168  -7.520 -35.057  0.00  0.00    +0.000 A 
ATOM     23  C22 UNL     1      30.871  -6.689 -36.138  0.00  0.00    +0.000 A 
ATOM     24  C23 UNL     1      30.629  -7.235 -37.402  0.00  0.00    +0.000 A 
ATOM     25  O6  UNL     1      30.352  -6.421 -38.410  0.00  0.00    +0.000 OA
ATOM     26  C24 UNL     1      30.121  -6.848 -39.643  0.00  0.00    +0.000 A 
ATOM     27  O7  UNL     1      29.857  -5.997 -40.534  0.00  0.00    +0.000 OA
BRANCH  17  28
ATOM     28  O5  UNL     1      30.362 -10.510 -39.158  0.00  0.00    +0.000 OA
ATOM     29  H11 UNL     1      29.664 -10.969 -39.723  0.00  0.00    +0.000 HD
ENDBRANCH  17  28
ENDBRANCH   1  16
BRANCH   1  33
ATOM     30  C2  UNL     1      32.456 -11.918 -42.729  0.00  0.00    +0.000 A 
ATOM     31  C3  UNL     1      31.085 -11.938 -43.041  0.00  0.00    +0.000 A 
ATOM     32  C4  UNL     1      30.250 -10.897 -42.629  0.00  0.00    +0.000 A 
ATOM     33  C5  UNL     1      30.767  -9.808 -41.898  0.00  0.00    +0.000 A 
ATOM     34  C25 UNL     1      32.138  -9.798 -41.586  0.00  0.00    +0.000 A 
ATOM     35  C26 UNL     1      32.977 -10.843 -41.998  0.00  0.00    +0.000 A 
BRANCH  30  37
ATOM     36  C1  UNL     1      33.797 -13.136 -44.455  0.00  0.00    +0.000 C 
ATOM     37  O1  UNL     1      33.328 -12.945 -43.124  0.00  0.00    +0.000 OA
ENDBRANCH  30  37
BRANCH  35  38
ATOM     38  O8  UNL     1      34.334 -10.820 -41.681  0.00  0.00    +0.000 OA
ATOM     39  H16 UNL     1      34.926 -11.631 -41.819  0.00  0.00    +0.000 HD
ENDBRANCH  35  38
ENDBRANCH   1  33
TORSDOF 7
ENDMDL
MODEL 6
REMARK VINA RESULT:    -5.517      4.001      6.839
REMARK INTER + INTRA:          -7.186
REMARK INTER:                  -7.457
REMARK INTRA:                   0.271
REMARK UNBOUND:                 0.105
REMARK  Name = resultss/4CJN/ligands/lig_370_t0.pdb
REMARK  8 active torsions:
REMARK  status: ('A' for Active; 'I' for Inactive)
REMARK    1  A    between atoms: C1_1  and  O1_2
REMARK    2  A    between atoms: O1_2  and  C2_3
REMARK    3  A    between atoms: C5_6  and  C6_7
REMARK    4  A    between atoms: C6_7  and  C7_8
REMARK    5  A    between atoms: C6_7  and  C16_21
REMARK    6  A    between atoms: C8_9  and  O2_10
REMARK    7  A    between atoms: C17_22  and  O5_23
REMARK    8  A    between atoms: C26_35  and  O8_36
REMARK                            x       y       z     vdW  Elec       q    Type
REMARK                         _______ _______ _______ _____ _____    ______ ____
ROOT
ATOM      1  C6  UNL     1      28.896  -7.916 -35.627  0.00  0.00    +0.000 C 
ENDROOT
BRANCH   1   2
ATOM      2  C7  UNL     1      27.474  -8.236 -35.147  0.00  0.00    +0.000 A 
ATOM      3  C8  UNL     1      26.728  -7.253 -34.457  0.00  0.00    +0.000 A 
ATOM      4  C9  UNL     1      25.419  -7.553 -34.015  0.00  0.00    +0.000 A 
ATOM      5  C10 UNL     1      24.621  -6.651 -33.277  0.00  0.00    +0.000 A 
ATOM      6  C11 UNL     1      23.330  -7.013 -32.874  0.00  0.00    +0.000 A 
ATOM      7 CL1  UNL     1      22.350  -5.883 -31.957  0.00  0.00    +0.000 Cl
ATOM      8  C12 UNL     1      22.820  -8.272 -33.195  0.00  0.00    +0.000 A 
ATOM      9  C13 UNL     1      23.596  -9.176 -33.919  0.00  0.00    +0.000 A 
ATOM     10  C14 UNL     1      24.888  -8.827 -34.327  0.00  0.00    +0.000 A 
ATOM     11  O3  UNL     1      25.603  -9.704 -35.017  0.00  0.00    +0.000 OA
ATOM     12  C15 UNL     1      26.837  -9.466 -35.436  0.00  0.00    +0.000 A 
ATOM     13  O4  UNL     1      27.420 -10.355 -36.109  0.00  0.00    +0.000 OA
BRANCH   3  14
ATOM     14  O2  UNL     1      27.315  -5.999 -34.244  0.00  0.00    +0.000 OA
ATOM     15  H7  UNL     1      28.238  -5.851 -33.863  0.00  0.00    +0.000 HD
ENDBRANCH   3  14
ENDBRANCH   1   2
BRANCH   1  16
ATOM     16  C16 UNL     1      29.965  -8.147 -34.547  0.00  0.00    +0.000 A 
ATOM     17  C17 UNL     1      30.132  -9.380 -33.863  0.00  0.00    +0.000 A 
ATOM     18  C18 UNL     1      31.163  -9.503 -32.900  0.00  0.00    +0.000 A 
ATOM     19  C19 UNL     1      31.441 -10.705 -32.210  0.00  0.00    +0.000 A 
ATOM     20  C20 UNL     1      32.469 -10.756 -31.262  0.00  0.00    +0.000 A 
ATOM     21 CL2  UNL     1      32.804 -12.255 -30.412  0.00  0.00    +0.000 Cl
ATOM     22  C21 UNL     1      33.234  -9.621 -30.991  0.00  0.00    +0.000 A 
ATOM     23  C22 UNL     1      32.977  -8.429 -31.669  0.00  0.00    +0.000 A 
ATOM     24  C23 UNL     1      31.954  -8.364 -32.620  0.00  0.00    +0.000 A 
ATOM     25  O6  UNL     1      31.736  -7.220 -33.250  0.00  0.00    +0.000 OA
ATOM     26  C24 UNL     1      30.797  -7.069 -34.174  0.00  0.00    +0.000 A 
ATOM     27  O7  UNL     1      30.660  -5.938 -34.713  0.00  0.00    +0.000 OA
BRANCH  17  28
ATOM     28  O5  UNL     1      29.257 -10.436 -34.142  0.00  0.00    +0.000 OA
ATOM     29  H11 UNL     1      28.651 -10.490 -34.946  0.00  0.00    +0.000 HD
ENDBRANCH  17  28
ENDBRANCH   1  16
BRANCH   1  33
ATOM     30  C2  UNL     1      29.918  -9.676 -39.473  0.00  0.00    +0.000 A 
ATOM     31  C3  UNL     1      28.689  -9.010 -39.315  0.00  0.00    +0.000 A 
ATOM     32  C4  UNL     1      28.349  -8.434 -38.089  0.00  0.00    +0.000 A 
ATOM     33  C5  UNL     1      29.232  -8.506 -36.992  0.00  0.00    +0.000 A 
ATOM     34  C25 UNL     1      30.456  -9.178 -37.157  0.00  0.00    +0.000 A 
ATOM     35  C26 UNL     1      30.798  -9.758 -38.387  0.00  0.00    +0.000 A 
BRANCH  30  37
ATOM     36  C1  UNL     1      29.858  -9.829 -41.970  0.00  0.00    +0.000 C 
ATOM     37  O1  UNL     1      30.297 -10.269 -40.688  0.00  0.00    +0.000 OA
ENDBRANCH  30  37
BRANCH  35  38
ATOM     38  O8  UNL     1      32.015 -10.421 -38.535  0.00  0.00    +0.000 OA
ATOM     39  H16 UNL     1      32.108 -11.232 -39.137  0.00  0.00    +0.000 HD
ENDBRANCH  35  38
ENDBRANCH   1  33
TORSDOF 7
ENDMDL
MODEL 7
REMARK VINA RESULT:    -5.318      4.016      6.207
REMARK INTER + INTRA:          -6.923
REMARK INTER:                  -7.100
REMARK INTRA:                   0.177
REMARK UNBOUND:                 0.105
REMARK  Name = resultss/4CJN/ligands/lig_370_t0.pdb
REMARK  8 active torsions:
REMARK  status: ('A' for Active; 'I' for Inactive)
REMARK    1  A    between atoms: C1_1  and  O1_2
REMARK    2  A    between atoms: O1_2  and  C2_3
REMARK    3  A    between atoms: C5_6  and  C6_7
REMARK    4  A    between atoms: C6_7  and  C7_8
REMARK    5  A    between atoms: C6_7  and  C16_21
REMARK    6  A    between atoms: C8_9  and  O2_10
REMARK    7  A    between atoms: C17_22  and  O5_23
REMARK    8  A    between atoms: C26_35  and  O8_36
REMARK                            x       y       z     vdW  Elec       q    Type
REMARK                         _______ _______ _______ _____ _____    ______ ____
ROOT
ATOM      1  C6  UNL     1      28.687  -7.128 -35.283  0.00  0.00    +0.000 C 
ENDROOT
BRANCH   1   2
ATOM      2  C7  UNL     1      29.500  -8.079 -34.393  0.00  0.00    +0.000 A 
ATOM      3  C8  UNL     1      30.431  -7.550 -33.469  0.00  0.00    +0.000 A 
ATOM      4  C9  UNL     1      31.179  -8.430 -32.652  0.00  0.00    +0.000 A 
ATOM      5  C10 UNL     1      32.164  -7.995 -31.739  0.00  0.00    +0.000 A 
ATOM      6  C11 UNL     1      32.866  -8.921 -30.957  0.00  0.00    +0.000 A 
ATOM      7 CL1  UNL     1      34.088  -8.366 -29.827  0.00  0.00    +0.000 Cl
ATOM      8  C12 UNL     1      32.599 -10.285 -31.077  0.00  0.00    +0.000 A 
ATOM      9  C13 UNL     1      31.633 -10.732 -31.977  0.00  0.00    +0.000 A 
ATOM     10  C14 UNL     1      30.926  -9.817 -32.764  0.00  0.00    +0.000 A 
ATOM     11  O3  UNL     1      30.011 -10.270 -33.609  0.00  0.00    +0.000 OA
ATOM     12  C15 UNL     1      29.300  -9.479 -34.401  0.00  0.00    +0.000 A 
ATOM     13  O4  UNL     1      28.434 -10.006 -35.147  0.00  0.00    +0.000 OA
BRANCH   3  14
ATOM     14  O2  UNL     1      30.573  -6.159 -33.388  0.00  0.00    +0.000 OA
ATOM     15  H7  UNL     1      30.026  -5.491 -33.911  0.00  0.00    +0.000 HD
ENDBRANCH   3  14
ENDBRANCH   1   2
BRANCH   1  16
ATOM     16  C16 UNL     1      29.045  -7.243 -36.773  0.00  0.00    +0.000 A 
ATOM     17  C17 UNL     1      28.313  -8.038 -37.694  0.00  0.00    +0.000 A 
ATOM     18  C18 UNL     1      28.707  -8.059 -39.055  0.00  0.00    +0.000 A 
ATOM     19  C19 UNL     1      28.009  -8.776 -40.054  0.00  0.00    +0.000 A 
ATOM     20  C20 UNL     1      28.457  -8.763 -41.379  0.00  0.00    +0.000 A 
ATOM     21 CL2  UNL     1      27.581  -9.657 -42.610  0.00  0.00    +0.000 Cl
ATOM     22  C21 UNL     1      29.597  -8.038 -41.730  0.00  0.00    +0.000 A 
ATOM     23  C22 UNL     1      30.293  -7.320 -40.757  0.00  0.00    +0.000 A 
ATOM     24  C23 UNL     1      29.855  -7.323 -39.429  0.00  0.00    +0.000 A 
ATOM     25  O6  UNL     1      30.534  -6.628 -38.529  0.00  0.00    +0.000 OA
ATOM     26  C24 UNL     1      30.187  -6.563 -37.251  0.00  0.00    +0.000 A 
ATOM     27  O7  UNL     1      30.901  -5.883 -36.467  0.00  0.00    +0.000 OA
BRANCH  17  28
ATOM     28  O5  UNL     1      27.236  -8.800 -37.229  0.00  0.00    +0.000 OA
ATOM     29  H11 UNL     1      27.171  -9.805 -37.282  0.00  0.00    +0.000 HD
ENDBRANCH  17  28
ENDBRANCH   1  16
BRANCH   1  33
ATOM     30  C2  UNL     1      24.442  -7.171 -34.327  0.00  0.00    +0.000 A 
ATOM     31  C3  UNL     1      24.912  -6.370 -35.383  0.00  0.00    +0.000 A 
ATOM     32  C4  UNL     1      26.271  -6.350 -35.707  0.00  0.00    +0.000 A 
ATOM     33  C5  UNL     1      27.192  -7.135 -34.985  0.00  0.00    +0.000 A 
ATOM     34  C25 UNL     1      26.715  -7.929 -33.927  0.00  0.00    +0.000 A 
ATOM     35  C26 UNL     1      25.352  -7.949 -33.600  0.00  0.00    +0.000 A 
BRANCH  30  37
ATOM     36  C1  UNL     1      22.013  -7.358 -34.897  0.00  0.00    +0.000 C 
ATOM     37  O1  UNL     1      23.085  -7.218 -33.970  0.00  0.00    +0.000 OA
ENDBRANCH  30  37
BRANCH  35  38
ATOM     38  O8  UNL     1      24.894  -8.742 -32.549  0.00  0.00    +0.000 OA
ATOM     39  H16 UNL     1      25.519  -9.350 -32.032  0.00  0.00    +0.000 HD
ENDBRANCH  35  38
ENDBRANCH   1  33
TORSDOF 7
ENDMDL
MODEL 8
REMARK VINA RESULT:    -5.300      2.850      7.144
REMARK INTER + INTRA:          -6.900
REMARK INTER:                  -8.150
REMARK INTRA:                   1.251
REMARK UNBOUND:                 0.105
REMARK  Name = resultss/4CJN/ligands/lig_370_t0.pdb
REMARK  8 active torsions:
REMARK  status: ('A' for Active; 'I' for Inactive)
REMARK    1  A    between atoms: C1_1  and  O1_2
REMARK    2  A    between atoms: O1_2  and  C2_3
REMARK    3  A    between atoms: C5_6  and  C6_7
REMARK    4  A    between atoms: C6_7  and  C7_8
REMARK    5  A    between atoms: C6_7  and  C16_21
REMARK    6  A    between atoms: C8_9  and  O2_10
REMARK    7  A    between atoms: C17_22  and  O5_23
REMARK    8  A    between atoms: C26_35  and  O8_36
REMARK                            x       y       z     vdW  Elec       q    Type
REMARK                         _______ _______ _______ _____ _____    ______ ____
ROOT
ATOM      1  C6  UNL     1      26.589  -8.876 -38.849  0.00  0.00    +0.000 C 
ENDROOT
BRANCH   1   2
ATOM      2  C7  UNL     1      28.036  -8.486 -38.516  0.00  0.00    +0.000 A 
ATOM      3  C8  UNL     1      29.038  -9.482 -38.470  0.00  0.00    +0.000 A 
ATOM      4  C9  UNL     1      30.370  -9.118 -38.160  0.00  0.00    +0.000 A 
ATOM      5  C10 UNL     1      31.424 -10.051 -38.045  0.00  0.00    +0.000 A 
ATOM      6  C11 UNL     1      32.721  -9.621 -37.739  0.00  0.00    +0.000 A 
ATOM      7 CL1  UNL     1      34.021 -10.791 -37.597  0.00  0.00    +0.000 Cl
ATOM      8  C12 UNL     1      32.983  -8.264 -37.543  0.00  0.00    +0.000 A 
ATOM      9  C13 UNL     1      31.953  -7.331 -37.649  0.00  0.00    +0.000 A 
ATOM     10  C14 UNL     1      30.653  -7.748 -37.953  0.00  0.00    +0.000 A 
ATOM     11  O3  UNL     1      29.693  -6.839 -38.051  0.00  0.00    +0.000 OA
ATOM     12  C15 UNL     1      28.432  -7.141 -38.324  0.00  0.00    +0.000 A 
ATOM     13  O4  UNL     1      27.602  -6.201 -38.425  0.00  0.00    +0.000 OA
BRANCH   3  14
ATOM     14  O2  UNL     1      28.674 -10.807 -38.746  0.00  0.00    +0.000 OA
ATOM     15  H7  UNL     1      29.321 -11.548 -38.973  0.00  0.00    +0.000 HD
ENDBRANCH   3  14
ENDBRANCH   1   2
BRANCH   1  16
ATOM     16  C16 UNL     1      25.567  -8.323 -37.842  0.00  0.00    +0.000 A 
ATOM     17  C17 UNL     1      25.379  -8.863 -36.543  0.00  0.00    +0.000 A 
ATOM     18  C18 UNL     1      24.428  -8.268 -35.677  0.00  0.00    +0.000 A 
ATOM     19  C19 UNL     1      24.210  -8.700 -34.350  0.00  0.00    +0.000 A 
ATOM     20  C20 UNL     1      23.247  -8.074 -33.550  0.00  0.00    +0.000 A 
ATOM     21 CL2  UNL     1      22.986  -8.619 -31.902  0.00  0.00    +0.000 Cl
ATOM     22  C21 UNL     1      22.494  -7.012 -34.055  0.00  0.00    +0.000 A 
ATOM     23  C22 UNL     1      22.703  -6.569 -35.361  0.00  0.00    +0.000 A 
ATOM     24  C23 UNL     1      23.663  -7.185 -36.170  0.00  0.00    +0.000 A 
ATOM     25  O6  UNL     1      23.841  -6.740 -37.405  0.00  0.00    +0.000 OA
ATOM     26  C24 UNL     1      24.735  -7.254 -38.239  0.00  0.00    +0.000 A 
ATOM     27  O7  UNL     1      24.825  -6.768 -39.398  0.00  0.00    +0.000 OA
BRANCH  17  28
ATOM     28  O5  UNL     1      26.120  -9.985 -36.159  0.00  0.00    +0.000 OA
ATOM     29  H11 UNL     1      27.014  -9.958 -35.693  0.00  0.00    +0.000 HD
ENDBRANCH  17  28
ENDBRANCH   1  16
BRANCH   1  33
ATOM     30  C2  UNL     1      25.427  -8.314 -43.005  0.00  0.00    +0.000 A 
ATOM     31  C3  UNL     1      26.481  -7.554 -42.465  0.00  0.00    +0.000 A 
ATOM     32  C4  UNL     1      26.870  -7.727 -41.135  0.00  0.00    +0.000 A 
ATOM     33  C5  UNL     1      26.218  -8.668 -40.313  0.00  0.00    +0.000 A 
ATOM     34  C25 UNL     1      25.163  -9.420 -40.858  0.00  0.00    +0.000 A 
ATOM     35  C26 UNL     1      24.770  -9.246 -42.192  0.00  0.00    +0.000 A 
BRANCH  30  37
ATOM     36  C1  UNL     1      25.344  -7.067 -45.172  0.00  0.00    +0.000 C 
ATOM     37  O1  UNL     1      25.006  -8.169 -44.336  0.00  0.00    +0.000 OA
ENDBRANCH  30  37
BRANCH  35  38
ATOM     38  O8  UNL     1      23.721  -9.999 -42.719  0.00  0.00    +0.000 OA
ATOM     39  H16 UNL     1      23.568 -10.962 -42.442  0.00  0.00    +0.000 HD
ENDBRANCH  35  38
ENDBRANCH   1  33
TORSDOF 7
ENDMDL
MODEL 9
REMARK VINA RESULT:    -4.985      3.820      6.489
REMARK INTER + INTRA:          -6.483
REMARK INTER:                  -8.014
REMARK INTRA:                   1.531
REMARK UNBOUND:                 0.105
REMARK  Name = resultss/4CJN/ligands/lig_370_t0.pdb
REMARK  8 active torsions:
REMARK  status: ('A' for Active; 'I' for Inactive)
REMARK    1  A    between atoms: C1_1  and  O1_2
REMARK    2  A    between atoms: O1_2  and  C2_3
REMARK    3  A    between atoms: C5_6  and  C6_7
REMARK    4  A    between atoms: C6_7  and  C7_8
REMARK    5  A    between atoms: C6_7  and  C16_21
REMARK    6  A    between atoms: C8_9  and  O2_10
REMARK    7  A    between atoms: C17_22  and  O5_23
REMARK    8  A    between atoms: C26_35  and  O8_36
REMARK                            x       y       z     vdW  Elec       q    Type
REMARK                         _______ _______ _______ _____ _____    ______ ____
ROOT
ATOM      1  C6  UNL     1      28.523  -7.729 -36.218  0.00  0.00    +0.000 C 
ENDROOT
BRANCH   1   2
ATOM      2  C7  UNL     1      29.792  -8.140 -35.458  0.00  0.00    +0.000 A 
ATOM      3  C8  UNL     1      29.711  -9.104 -34.427  0.00  0.00    +0.000 A 
ATOM      4  C9  UNL     1      30.883  -9.478 -33.728  0.00  0.00    +0.000 A 
ATOM      5  C10 UNL     1      30.889 -10.395 -32.654  0.00  0.00    +0.000 A 
ATOM      6  C11 UNL     1      32.087 -10.723 -32.008  0.00  0.00    +0.000 A 
ATOM      7 CL1  UNL     1      32.079 -11.863 -30.674  0.00  0.00    +0.000 Cl
ATOM      8  C12 UNL     1      33.288 -10.143 -32.419  0.00  0.00    +0.000 A 
ATOM      9  C13 UNL     1      33.299  -9.232 -33.474  0.00  0.00    +0.000 A 
ATOM     10  C14 UNL     1      32.109  -8.895 -34.127  0.00  0.00    +0.000 A 
ATOM     11  O3  UNL     1      32.149  -8.030 -35.129  0.00  0.00    +0.000 OA
ATOM     12  C15 UNL     1      31.072  -7.644 -35.799  0.00  0.00    +0.000 A 
ATOM     13  O4  UNL     1      31.221  -6.839 -36.755  0.00  0.00    +0.000 OA
BRANCH   3  14
ATOM     14  O2  UNL     1      28.462  -9.670 -34.140  0.00  0.00    +0.000 OA
ATOM     15  H7  UNL     1      27.656  -9.156 -33.816  0.00  0.00    +0.000 HD
ENDBRANCH   3  14
ENDBRANCH   1   2
BRANCH   1  16
ATOM     16  C16 UNL     1      28.397  -8.405 -37.593  0.00  0.00    +0.000 A 
ATOM     17  C17 UNL     1      28.476  -7.698 -38.822  0.00  0.00    +0.000 A 
ATOM     18  C18 UNL     1      28.373  -8.414 -40.040  0.00  0.00    +0.000 A 
ATOM     19  C19 UNL     1      28.494  -7.806 -41.310  0.00  0.00    +0.000 A 
ATOM     20  C20 UNL     1      28.372  -8.570 -42.476  0.00  0.00    +0.000 A 
ATOM     21 CL2  UNL     1      28.526  -7.803 -44.048  0.00  0.00    +0.000 Cl
ATOM     22  C21 UNL     1      28.132  -9.942 -42.396  0.00  0.00    +0.000 A 
ATOM     23  C22 UNL     1      28.017 -10.559 -41.150  0.00  0.00    +0.000 A 
ATOM     24  C23 UNL     1      28.139  -9.808 -39.977  0.00  0.00    +0.000 A 
ATOM     25  O6  UNL     1      28.028 -10.421 -38.808  0.00  0.00    +0.000 OA
ATOM     26  C24 UNL     1      28.142  -9.792 -37.646  0.00  0.00    +0.000 A 
ATOM     27  O7  UNL     1      28.012 -10.461 -36.586  0.00  0.00    +0.000 OA
BRANCH  17  28
ATOM     28  O5  UNL     1      28.630  -6.308 -38.797  0.00  0.00    +0.000 OA
ATOM     29  H11 UNL     1      28.972  -5.776 -38.012  0.00  0.00    +0.000 HD
ENDBRANCH  17  28
ENDBRANCH   1  16
BRANCH   1  33
ATOM     30  C2  UNL     1      24.936  -7.754 -33.754  0.00  0.00    +0.000 A 
ATOM     31  C3  UNL     1      24.960  -8.478 -34.960  0.00  0.00    +0.000 A 
ATOM     32  C4  UNL     1      26.106  -8.486 -35.759  0.00  0.00    +0.000 A 
ATOM     33  C5  UNL     1      27.257  -7.773 -35.369  0.00  0.00    +0.000 A 
ATOM     34  C25 UNL     1      27.224  -7.047 -34.165  0.00  0.00    +0.000 A 
ATOM     35  C26 UNL     1      26.074  -7.038 -33.363  0.00  0.00    +0.000 A 
BRANCH  30  37
ATOM     36  C1  UNL     1      23.102  -8.874 -32.473  0.00  0.00    +0.000 C 
ATOM     37  O1  UNL     1      23.805  -7.721 -32.924  0.00  0.00    +0.000 OA
ENDBRANCH  30  37
BRANCH  35  38
ATOM     38  O8  UNL     1      26.056  -6.314 -32.172  0.00  0.00    +0.000 OA
ATOM     39  H16 UNL     1      25.186  -6.019 -31.743  0.00  0.00    +0.000 HD
ENDBRANCH  35  38
ENDBRANCH   1  33
TORSDOF 7
ENDMDL
