MODEL 1
REMARK VINA RESULT:    -6.303      0.000      0.000
REMARK INTER + INTRA:         -14.445
REMARK INTER:                 -12.014
REMARK INTRA:                  -2.430
REMARK UNBOUND:                -2.430
REMARK  Name = resultss/4CJN/ligands/lig_358_t0.pdb
REMARK  23 active torsions:
REMARK  status: ('A' for Active; 'I' for Inactive)
REMARK    1  A    between atoms: C1_1  and  C2_2
REMARK    2  A    between atoms: C3_4  and  O2_5
REMARK    3  A    between atoms: O2_5  and  C4_6
REMARK    4  A    between atoms: C5_7  and  O3_8
REMARK    5  A    between atoms: C6_9  and  O4_10
REMARK    6  A    between atoms: C7_11  and  O5_12
REMARK    7  A    between atoms: O5_12  and  C8_13
REMARK    8  A    between atoms: C9_14  and  O6_15
REMARK    9  A    between atoms: C10_16  and  O7_17
REMARK   10  A    between atoms: C11_18  and  O8_19
REMARK   11  A    between atoms: C12_21  and  C13_22
REMARK   12  A    between atoms: C13_22  and  O10_23
REMARK   13  A    between atoms: C14_25  and  C15_26
REMARK   14  A    between atoms: C15_26  and  O12_27
REMARK   15  A    between atoms: C16_28  and  O13_29
REMARK   16  A    between atoms: C17_30  and  O14_31
REMARK   17  A    between atoms: C18_32  and  N1_33
REMARK   18  A    between atoms: N1_33  and  C19_34
REMARK   19  A    between atoms: C21_36  and  C22_37
REMARK   20  A    between atoms: C22_37  and  O15_38
REMARK   21  A    between atoms: C23_39  and  O16_40
REMARK   22  A    between atoms: C24_41  and  O17_42
REMARK   23  A    between atoms: C25_43  and  O18_44
REMARK                            x       y       z     vdW  Elec       q    Type
REMARK                         _______ _______ _______ _____ _____    ______ ____
ROOT
ATOM      1  O2  UNL     1      28.681  -8.749 -41.424  0.00  0.00    +0.000 OA
ENDROOT
BRANCH   1   5
ATOM      2  C1  UNL     1      28.986  -6.764 -37.593  0.00  0.00    +0.000 C 
ATOM      3  C2  UNL     1      27.788  -7.511 -38.207  0.00  0.00    +0.000 C 
ATOM      4  O1  UNL     1      27.864  -7.609 -39.621  0.00  0.00    +0.000 OA
ATOM      5  C3  UNL     1      28.972  -8.368 -40.088  0.00  0.00    +0.000 C 
ATOM      6  C16 UNL     1      29.236  -9.649 -39.244  0.00  0.00    +0.000 C 
ATOM      7  C17 UNL     1      27.987 -10.064 -38.446  0.00  0.00    +0.000 C 
ATOM      8  C18 UNL     1      27.498  -8.895 -37.546  0.00  0.00    +0.000 C 
BRANCH   8   9
ATOM      9  N1  UNL     1      26.047  -8.979 -37.256  0.00  0.00    +0.000 NA
ATOM     10  H32 UNL     1      25.793  -9.991 -37.164  0.00  0.00    +0.000 HD
BRANCH   9  11
ATOM     11  C19 UNL     1      25.591  -8.277 -36.037  0.00  0.00    +0.000 C 
ATOM     12  C20 UNL     1      24.096  -8.039 -36.033  0.00  0.00    +0.000 C 
ATOM     13  C21 UNL     1      23.504  -7.571 -34.918  0.00  0.00    +0.000 C 
ATOM     14  C23 UNL     1      24.377  -7.351 -33.688  0.00  0.00    +0.000 C 
ATOM     15  C24 UNL     1      25.271  -8.595 -33.459  0.00  0.00    +0.000 C 
ATOM     16  C25 UNL     1      25.986  -9.085 -34.766  0.00  0.00    +0.000 C 
BRANCH  16  17
ATOM     17  O18 UNL     1      25.762 -10.463 -34.954  0.00  0.00    +0.000 OA
ATOM     18  H43 UNL     1      25.752 -10.888 -34.057  0.00  0.00    +0.000 HD
ENDBRANCH  16  17
BRANCH  15  19
ATOM     19  O17 UNL     1      26.228  -8.299 -32.473  0.00  0.00    +0.000 OA
ATOM     20  H41 UNL     1      25.818  -7.626 -31.870  0.00  0.00    +0.000 HD
ENDBRANCH  15  19
BRANCH  14  21
ATOM     21  O16 UNL     1      23.591  -7.100 -32.552  0.00  0.00    +0.000 OA
ATOM     22  H39 UNL     1      23.306  -6.150 -32.598  0.00  0.00    +0.000 HD
ENDBRANCH  14  21
BRANCH  13  23
ATOM     23  C22 UNL     1      22.007  -7.338 -34.912  0.00  0.00    +0.000 C 
BRANCH  23  24
ATOM     24  O15 UNL     1      21.539  -7.160 -36.221  0.00  0.00    +0.000 OA
ATOM     25  H37 UNL     1      22.086  -7.759 -36.795  0.00  0.00    +0.000 HD
ENDBRANCH  23  24
ENDBRANCH  13  23
ENDBRANCH   9  11
ENDBRANCH   8   9
BRANCH   7  26
ATOM     26  O14 UNL     1      28.307 -11.171 -37.644  0.00  0.00    +0.000 OA
ATOM     27  H30 UNL     1      27.688 -11.905 -37.894  0.00  0.00    +0.000 HD
ENDBRANCH   7  26
BRANCH   6  28
ATOM     28  O13 UNL     1      29.720 -10.705 -40.039  0.00  0.00    +0.000 OA
ATOM     29  H28 UNL     1      29.020 -11.407 -40.074  0.00  0.00    +0.000 HD
ENDBRANCH   6  28
ENDBRANCH   1   5
BRANCH   1  30
ATOM     30  C4  UNL     1      27.493  -8.167 -41.936  0.00  0.00    +0.000 C 
ATOM     31  C5  UNL     1      27.887  -7.122 -42.995  0.00  0.00    +0.000 C 
ATOM     32  C6  UNL     1      26.633  -6.478 -43.625  0.00  0.00    +0.000 C 
ATOM     33  C7  UNL     1      25.474  -7.501 -43.705  0.00  0.00    +0.000 C 
ATOM     34  O11 UNL     1      25.979  -8.822 -43.816  0.00  0.00    +0.000 OA
ATOM     35  C14 UNL     1      26.607  -9.259 -42.611  0.00  0.00    +0.000 C 
BRANCH  32  36
ATOM     36  O4  UNL     1      26.949  -5.989 -44.906  0.00  0.00    +0.000 OA
ATOM     37  H10 UNL     1      26.368  -6.477 -45.549  0.00  0.00    +0.000 HD
ENDBRANCH  32  36
BRANCH  31  38
ATOM     38  O3  UNL     1      28.734  -6.140 -42.452  0.00  0.00    +0.000 OA
ATOM     39  H8  UNL     1      28.315  -5.257 -42.620  0.00  0.00    +0.000 HD
ENDBRANCH  31  38
BRANCH  35  40
ATOM     40  C15 UNL     1      25.572  -9.859 -41.637  0.00  0.00    +0.000 C 
BRANCH  40  41
ATOM     41  O12 UNL     1      25.523  -9.111 -40.451  0.00  0.00    +0.000 OA
ATOM     42  H26 UNL     1      25.168  -9.716 -39.748  0.00  0.00    +0.000 HD
ENDBRANCH  40  41
ENDBRANCH  35  40
BRANCH  33  43
ATOM     43  O5  UNL     1      24.669  -7.208 -44.832  0.00  0.00    +0.000 OA
BRANCH  43  44
ATOM     44  C8  UNL     1      23.386  -6.730 -44.453  0.00  0.00    +0.000 C 
ATOM     45  C9  UNL     1      22.375  -7.017 -45.579  0.00  0.00    +0.000 C 
ATOM     46  C10 UNL     1      20.974  -6.536 -45.163  0.00  0.00    +0.000 C 
ATOM     47  C11 UNL     1      20.741  -6.733 -43.640  0.00  0.00    +0.000 C 
ATOM     48  O9  UNL     1      21.539  -7.786 -43.126  0.00  0.00    +0.000 OA
ATOM     49  C12 UNL     1      22.934  -7.480 -43.166  0.00  0.00    +0.000 C 
BRANCH  47  50
ATOM     50  O8  UNL     1      19.388  -6.984 -43.352  0.00  0.00    +0.000 OA
ATOM     51  H18 UNL     1      19.361  -7.550 -42.534  0.00  0.00    +0.000 HD
ENDBRANCH  47  50
BRANCH  46  52
ATOM     52  O7  UNL     1      20.010  -7.222 -45.926  0.00  0.00    +0.000 OA
ATOM     53  H16 UNL     1      19.128  -7.064 -45.497  0.00  0.00    +0.000 HD
ENDBRANCH  46  52
BRANCH  45  54
ATOM     54  O6  UNL     1      22.752  -6.357 -46.761  0.00  0.00    +0.000 OA
ATOM     55  H14 UNL     1      22.114  -5.606 -46.885  0.00  0.00    +0.000 HD
ENDBRANCH  45  54
BRANCH  49  56
ATOM     56  C13 UNL     1      23.370  -6.735 -41.895  0.00  0.00    +0.000 C 
BRANCH  56  57
ATOM     57  O10 UNL     1      23.092  -7.519 -40.762  0.00  0.00    +0.000 OA
ATOM     58  H22 UNL     1      23.188  -8.470 -41.029  0.00  0.00    +0.000 HD
ENDBRANCH  56  57
ENDBRANCH  49  56
ENDBRANCH  43  44
ENDBRANCH  33  43
ENDBRANCH   1  30
TORSDOF 22
ENDMDL
MODEL 2
REMARK VINA RESULT:    -6.234      1.406      2.936
REMARK INTER + INTRA:         -14.313
REMARK INTER:                 -12.876
REMARK INTRA:                  -1.437
REMARK UNBOUND:                -2.430
REMARK  Name = resultss/4CJN/ligands/lig_358_t0.pdb
REMARK  23 active torsions:
REMARK  status: ('A' for Active; 'I' for Inactive)
REMARK    1  A    between atoms: C1_1  and  C2_2
REMARK    2  A    between atoms: C3_4  and  O2_5
REMARK    3  A    between atoms: O2_5  and  C4_6
REMARK    4  A    between atoms: C5_7  and  O3_8
REMARK    5  A    between atoms: C6_9  and  O4_10
REMARK    6  A    between atoms: C7_11  and  O5_12
REMARK    7  A    between atoms: O5_12  and  C8_13
REMARK    8  A    between atoms: C9_14  and  O6_15
REMARK    9  A    between atoms: C10_16  and  O7_17
REMARK   10  A    between atoms: C11_18  and  O8_19
REMARK   11  A    between atoms: C12_21  and  C13_22
REMARK   12  A    between atoms: C13_22  and  O10_23
REMARK   13  A    between atoms: C14_25  and  C15_26
REMARK   14  A    between atoms: C15_26  and  O12_27
REMARK   15  A    between atoms: C16_28  and  O13_29
REMARK   16  A    between atoms: C17_30  and  O14_31
REMARK   17  A    between atoms: C18_32  and  N1_33
REMARK   18  A    between atoms: N1_33  and  C19_34
REMARK   19  A    between atoms: C21_36  and  C22_37
REMARK   20  A    between atoms: C22_37  and  O15_38
REMARK   21  A    between atoms: C23_39  and  O16_40
REMARK   22  A    between atoms: C24_41  and  O17_42
REMARK   23  A    between atoms: C25_43  and  O18_44
REMARK                            x       y       z     vdW  Elec       q    Type
REMARK                         _______ _______ _______ _____ _____    ______ ____
ROOT
ATOM      1  O2  UNL     1      27.407  -9.902 -41.690  0.00  0.00    +0.000 OA
ENDROOT
BRANCH   1   5
ATOM      2  C1  UNL     1      27.496  -6.550 -38.957  0.00  0.00    +0.000 C 
ATOM      3  C2  UNL     1      26.742  -7.885 -38.831  0.00  0.00    +0.000 C 
ATOM      4  O1  UNL     1      26.544  -8.529 -40.081  0.00  0.00    +0.000 OA
ATOM      5  C3  UNL     1      27.750  -8.916 -40.727  0.00  0.00    +0.000 C 
ATOM      6  C16 UNL     1      28.804  -9.511 -39.749  0.00  0.00    +0.000 C 
ATOM      7  C17 UNL     1      28.149 -10.004 -38.447  0.00  0.00    +0.000 C 
ATOM      8  C18 UNL     1      27.347  -8.857 -37.770  0.00  0.00    +0.000 C 
BRANCH   8   9
ATOM      9  N1  UNL     1      26.243  -9.369 -36.922  0.00  0.00    +0.000 NA
ATOM     10  H32 UNL     1      26.550 -10.280 -36.506  0.00  0.00    +0.000 HD
BRANCH   9  11
ATOM     11  C19 UNL     1      25.811  -8.482 -35.821  0.00  0.00    +0.000 C 
ATOM     12  C20 UNL     1      24.339  -8.140 -35.901  0.00  0.00    +0.000 C 
ATOM     13  C21 UNL     1      23.755  -7.488 -34.878  0.00  0.00    +0.000 C 
ATOM     14  C23 UNL     1      24.610  -7.170 -33.656  0.00  0.00    +0.000 C 
ATOM     15  C24 UNL     1      25.402  -8.434 -33.237  0.00  0.00    +0.000 C 
ATOM     16  C25 UNL     1      26.112  -9.142 -34.444  0.00  0.00    +0.000 C 
BRANCH  16  17
ATOM     17  O18 UNL     1      25.789 -10.513 -34.459  0.00  0.00    +0.000 OA
ATOM     18  H43 UNL     1      24.968 -10.632 -33.915  0.00  0.00    +0.000 HD
ENDBRANCH  16  17
BRANCH  15  19
ATOM     19  O17 UNL     1      26.353  -8.079 -32.265  0.00  0.00    +0.000 OA
ATOM     20  H41 UNL     1      26.552  -7.116 -32.399  0.00  0.00    +0.000 HD
ENDBRANCH  15  19
BRANCH  14  21
ATOM     21  O16 UNL     1      23.816  -6.716 -32.591  0.00  0.00    +0.000 OA
ATOM     22  H39 UNL     1      22.928  -6.482 -32.968  0.00  0.00    +0.000 HD
ENDBRANCH  14  21
BRANCH  13  23
ATOM     23  C22 UNL     1      22.280  -7.150 -34.954  0.00  0.00    +0.000 C 
BRANCH  23  24
ATOM     24  O15 UNL     1      21.829  -7.248 -36.278  0.00  0.00    +0.000 OA
ATOM     25  H37 UNL     1      22.536  -7.735 -36.777  0.00  0.00    +0.000 HD
ENDBRANCH  23  24
ENDBRANCH  13  23
ENDBRANCH   9  11
ENDBRANCH   8   9
BRANCH   7  26
ATOM     26  O14 UNL     1      29.153 -10.452 -37.574  0.00  0.00    +0.000 OA
ATOM     27  H30 UNL     1      29.867 -10.860 -38.130  0.00  0.00    +0.000 HD
ENDBRANCH   7  26
BRANCH   6  28
ATOM     28  O13 UNL     1      29.568 -10.523 -40.361  0.00  0.00    +0.000 OA
ATOM     29  H28 UNL     1      29.624 -10.320 -41.331  0.00  0.00    +0.000 HD
ENDBRANCH   6  28
ENDBRANCH   1   5
BRANCH   1  30
ATOM     30  C4  UNL     1      26.604  -9.406 -42.750  0.00  0.00    +0.000 C 
ATOM     31  C5  UNL     1      25.155  -9.296 -42.244  0.00  0.00    +0.000 C 
ATOM     32  C6  UNL     1      24.232  -8.720 -43.340  0.00  0.00    +0.000 C 
ATOM     33  C7  UNL     1      24.997  -7.701 -44.219  0.00  0.00    +0.000 C 
ATOM     34  O11 UNL     1      26.036  -7.082 -43.478  0.00  0.00    +0.000 OA
ATOM     35  C14 UNL     1      27.097  -7.989 -43.180  0.00  0.00    +0.000 C 
BRANCH  32  36
ATOM     36  O4  UNL     1      23.113  -8.115 -42.742  0.00  0.00    +0.000 OA
ATOM     37  H10 UNL     1      23.372  -7.177 -42.536  0.00  0.00    +0.000 HD
ENDBRANCH  32  36
BRANCH  31  38
ATOM     38  O3  UNL     1      24.678 -10.539 -41.792  0.00  0.00    +0.000 OA
ATOM     39  H8  UNL     1      24.021 -10.868 -42.457  0.00  0.00    +0.000 HD
ENDBRANCH  31  38
BRANCH  35  40
ATOM     40  C15 UNL     1      28.114  -8.049 -44.338  0.00  0.00    +0.000 C 
BRANCH  40  41
ATOM     41  O12 UNL     1      28.141  -6.829 -45.030  0.00  0.00    +0.000 OA
ATOM     42  H26 UNL     1      29.094  -6.641 -45.237  0.00  0.00    +0.000 HD
ENDBRANCH  40  41
ENDBRANCH  35  40
BRANCH  33  43
ATOM     43  O5  UNL     1      24.095  -6.713 -44.682  0.00  0.00    +0.000 OA
BRANCH  43  44
ATOM     44  C8  UNL     1      23.407  -7.133 -45.852  0.00  0.00    +0.000 C 
ATOM     45  C9  UNL     1      21.910  -6.801 -45.717  0.00  0.00    +0.000 C 
ATOM     46  C10 UNL     1      21.162  -7.220 -46.995  0.00  0.00    +0.000 C 
ATOM     47  C11 UNL     1      22.043  -7.011 -48.256  0.00  0.00    +0.000 C 
ATOM     48  O9  UNL     1      23.010  -5.995 -48.050  0.00  0.00    +0.000 OA
ATOM     49  C12 UNL     1      23.987  -6.364 -47.075  0.00  0.00    +0.000 C 
BRANCH  47  50
ATOM     50  O8  UNL     1      21.266  -6.700 -49.385  0.00  0.00    +0.000 OA
ATOM     51  H18 UNL     1      20.981  -5.751 -49.294  0.00  0.00    +0.000 HD
ENDBRANCH  47  50
BRANCH  46  52
ATOM     52  O7  UNL     1      19.960  -6.492 -47.080  0.00  0.00    +0.000 OA
ATOM     53  H16 UNL     1      19.676  -6.282 -46.151  0.00  0.00    +0.000 HD
ENDBRANCH  46  52
BRANCH  45  54
ATOM     54  O6  UNL     1      21.351  -7.479 -44.619  0.00  0.00    +0.000 OA
ATOM     55  H14 UNL     1      22.100  -7.931 -44.151  0.00  0.00    +0.000 HD
ENDBRANCH  45  54
BRANCH  49  56
ATOM     56  C13 UNL     1      25.151  -7.126 -47.724  0.00  0.00    +0.000 C 
BRANCH  56  57
ATOM     57  O10 UNL     1      26.374  -6.552 -47.337  0.00  0.00    +0.000 OA
ATOM     58  H22 UNL     1      27.032  -6.744 -48.056  0.00  0.00    +0.000 HD
ENDBRANCH  56  57
ENDBRANCH  49  56
ENDBRANCH  43  44
ENDBRANCH  33  43
ENDBRANCH   1  30
TORSDOF 22
ENDMDL
MODEL 3
REMARK VINA RESULT:    -6.083      2.441      4.385
REMARK INTER + INTRA:         -14.026
REMARK INTER:                 -10.664
REMARK INTRA:                  -3.361
REMARK UNBOUND:                -2.430
REMARK  Name = resultss/4CJN/ligands/lig_358_t0.pdb
REMARK  23 active torsions:
REMARK  status: ('A' for Active; 'I' for Inactive)
REMARK    1  A    between atoms: C1_1  and  C2_2
REMARK    2  A    between atoms: C3_4  and  O2_5
REMARK    3  A    between atoms: O2_5  and  C4_6
REMARK    4  A    between atoms: C5_7  and  O3_8
REMARK    5  A    between atoms: C6_9  and  O4_10
REMARK    6  A    between atoms: C7_11  and  O5_12
REMARK    7  A    between atoms: O5_12  and  C8_13
REMARK    8  A    between atoms: C9_14  and  O6_15
REMARK    9  A    between atoms: C10_16  and  O7_17
REMARK   10  A    between atoms: C11_18  and  O8_19
REMARK   11  A    between atoms: C12_21  and  C13_22
REMARK   12  A    between atoms: C13_22  and  O10_23
REMARK   13  A    between atoms: C14_25  and  C15_26
REMARK   14  A    between atoms: C15_26  and  O12_27
REMARK   15  A    between atoms: C16_28  and  O13_29
REMARK   16  A    between atoms: C17_30  and  O14_31
REMARK   17  A    between atoms: C18_32  and  N1_33
REMARK   18  A    between atoms: N1_33  and  C19_34
REMARK   19  A    between atoms: C21_36  and  C22_37
REMARK   20  A    between atoms: C22_37  and  O15_38
REMARK   21  A    between atoms: C23_39  and  O16_40
REMARK   22  A    between atoms: C24_41  and  O17_42
REMARK   23  A    between atoms: C25_43  and  O18_44
REMARK                            x       y       z     vdW  Elec       q    Type
REMARK                         _______ _______ _______ _____ _____    ______ ____
ROOT
ATOM      1  O2  UNL     1      31.038  -8.322 -37.173  0.00  0.00    +0.000 OA
ENDROOT
BRANCH   1   5
ATOM      2  C1  UNL     1      29.132  -6.063 -34.014  0.00  0.00    +0.000 C 
ATOM      3  C2  UNL     1      28.568  -7.222 -34.855  0.00  0.00    +0.000 C 
ATOM      4  O1  UNL     1      29.254  -7.398 -36.085  0.00  0.00    +0.000 OA
ATOM      5  C3  UNL     1      30.621  -7.761 -35.937  0.00  0.00    +0.000 C 
ATOM      6  C16 UNL     1      30.857  -8.803 -34.805  0.00  0.00    +0.000 C 
ATOM      7  C17 UNL     1      29.563  -9.561 -34.458  0.00  0.00    +0.000 C 
ATOM      8  C18 UNL     1      28.433  -8.566 -34.071  0.00  0.00    +0.000 C 
BRANCH   8   9
ATOM      9  N1  UNL     1      27.083  -9.123 -34.329  0.00  0.00    +0.000 NA
ATOM     10  H32 UNL     1      26.932  -9.924 -33.672  0.00  0.00    +0.000 HD
BRANCH   9  11
ATOM     11  C19 UNL     1      25.956  -8.179 -34.172  0.00  0.00    +0.000 C 
ATOM     12  C20 UNL     1      25.387  -7.735 -35.502  0.00  0.00    +0.000 C 
ATOM     13  C21 UNL     1      24.248  -7.017 -35.527  0.00  0.00    +0.000 C 
ATOM     14  C23 UNL     1      23.559  -6.729 -34.198  0.00  0.00    +0.000 C 
ATOM     15  C24 UNL     1      23.469  -8.035 -33.369  0.00  0.00    +0.000 C 
ATOM     16  C25 UNL     1      24.825  -8.823 -33.318  0.00  0.00    +0.000 C 
BRANCH  16  17
ATOM     17  O18 UNL     1      24.619 -10.167 -33.683  0.00  0.00    +0.000 OA
ATOM     18  H43 UNL     1      25.344 -10.703 -33.269  0.00  0.00    +0.000 HD
ENDBRANCH  16  17
BRANCH  15  19
ATOM     19  O17 UNL     1      23.047  -7.724 -32.065  0.00  0.00    +0.000 OA
ATOM     20  H41 UNL     1      23.845  -7.803 -31.481  0.00  0.00    +0.000 HD
ENDBRANCH  15  19
BRANCH  14  21
ATOM     21  O16 UNL     1      22.277  -6.193 -34.402  0.00  0.00    +0.000 OA
ATOM     22  H39 UNL     1      21.962  -5.851 -33.525  0.00  0.00    +0.000 HD
ENDBRANCH  14  21
BRANCH  13  23
ATOM     23  C22 UNL     1      23.674  -6.577 -36.859  0.00  0.00    +0.000 C 
BRANCH  23  24
ATOM     24  O15 UNL     1      23.913  -7.553 -37.836  0.00  0.00    +0.000 OA
ATOM     25  H37 UNL     1      24.657  -7.209 -38.397  0.00  0.00    +0.000 HD
ENDBRANCH  23  24
ENDBRANCH  13  23
ENDBRANCH   9  11
ENDBRANCH   8   9
BRANCH   7  26
ATOM     26  O14 UNL     1      29.817 -10.424 -33.380  0.00  0.00    +0.000 OA
ATOM     27  H30 UNL     1      29.089 -10.292 -32.719  0.00  0.00    +0.000 HD
ENDBRANCH   7  26
BRANCH   6  28
ATOM     28  O13 UNL     1      31.907  -9.686 -35.122  0.00  0.00    +0.000 OA
ATOM     29  H28 UNL     1      32.499  -9.754 -34.329  0.00  0.00    +0.000 HD
ENDBRANCH   6  28
ENDBRANCH   1   5
BRANCH   1  30
ATOM     30  C4  UNL     1      30.028  -8.318 -38.169  0.00  0.00    +0.000 C 
ATOM     31  C5  UNL     1      30.584  -7.608 -39.416  0.00  0.00    +0.000 C 
ATOM     32  C6  UNL     1      29.545  -7.608 -40.558  0.00  0.00    +0.000 C 
ATOM     33  C7  UNL     1      28.688  -8.896 -40.518  0.00  0.00    +0.000 C 
ATOM     34  O11 UNL     1      29.422  -9.968 -39.948  0.00  0.00    +0.000 OA
ATOM     35  C14 UNL     1      29.645  -9.782 -38.551  0.00  0.00    +0.000 C 
BRANCH  32  36
ATOM     36  O4  UNL     1      30.206  -7.492 -41.795  0.00  0.00    +0.000 OA
ATOM     37  H10 UNL     1      29.965  -6.601 -42.164  0.00  0.00    +0.000 HD
ENDBRANCH  32  36
BRANCH  31  38
ATOM     38  O3  UNL     1      30.997  -6.299 -39.115  0.00  0.00    +0.000 OA
ATOM     39  H8  UNL     1      30.244  -5.691 -39.329  0.00  0.00    +0.000 HD
ENDBRANCH  31  38
BRANCH  35  40
ATOM     40  C15 UNL     1      28.453 -10.310 -37.727  0.00  0.00    +0.000 C 
BRANCH  40  41
ATOM     41  O12 UNL     1      27.943 -11.484 -38.299  0.00  0.00    +0.000 OA
ATOM     42  H26 UNL     1      27.992 -12.187 -37.598  0.00  0.00    +0.000 HD
ENDBRANCH  40  41
ENDBRANCH  35  40
BRANCH  33  43
ATOM     43  O5  UNL     1      28.299  -9.240 -41.835  0.00  0.00    +0.000 OA
BRANCH  43  44
ATOM     44  C8  UNL     1      26.901  -9.077 -42.032  0.00  0.00    +0.000 C 
ATOM     45  C9  UNL     1      26.139  -9.679 -40.837  0.00  0.00    +0.000 C 
ATOM     46  C10 UNL     1      24.625  -9.474 -41.024  0.00  0.00    +0.000 C 
ATOM     47  C11 UNL     1      24.322  -8.122 -41.725  0.00  0.00    +0.000 C 
ATOM     48  O9  UNL     1      25.354  -7.178 -41.497  0.00  0.00    +0.000 OA
ATOM     49  C12 UNL     1      26.584  -7.555 -42.118  0.00  0.00    +0.000 C 
BRANCH  47  50
ATOM     50  O8  UNL     1      23.092  -7.587 -41.307  0.00  0.00    +0.000 OA
ATOM     51  H18 UNL     1      22.784  -8.128 -40.531  0.00  0.00    +0.000 HD
ENDBRANCH  47  50
BRANCH  46  52
ATOM     52  O7  UNL     1      23.995  -9.556 -39.767  0.00  0.00    +0.000 OA
ATOM     53  H16 UNL     1      24.199  -8.715 -39.280  0.00  0.00    +0.000 HD
ENDBRANCH  46  52
BRANCH  45  54
ATOM     54  O6  UNL     1      26.403 -11.055 -40.726  0.00  0.00    +0.000 OA
ATOM     55  H14 UNL     1      26.758 -11.350 -41.605  0.00  0.00    +0.000 HD
ENDBRANCH  45  54
BRANCH  49  56
ATOM     56  C13 UNL     1      26.648  -7.044 -43.565  0.00  0.00    +0.000 C 
BRANCH  56  57
ATOM     57  O10 UNL     1      27.952  -7.191 -44.067  0.00  0.00    +0.000 OA
ATOM     58  H22 UNL     1      28.519  -7.528 -43.325  0.00  0.00    +0.000 HD
ENDBRANCH  56  57
ENDBRANCH  49  56
ENDBRANCH  43  44
ENDBRANCH  33  43
ENDBRANCH   1  30
TORSDOF 22
ENDMDL
MODEL 4
REMARK VINA RESULT:    -5.867      2.277      3.059
REMARK INTER + INTRA:         -13.614
REMARK INTER:                 -12.052
REMARK INTRA:                  -1.561
REMARK UNBOUND:                -2.430
REMARK  Name = resultss/4CJN/ligands/lig_358_t0.pdb
REMARK  23 active torsions:
REMARK  status: ('A' for Active; 'I' for Inactive)
REMARK    1  A    between atoms: C1_1  and  C2_2
REMARK    2  A    between atoms: C3_4  and  O2_5
REMARK    3  A    between atoms: O2_5  and  C4_6
REMARK    4  A    between atoms: C5_7  and  O3_8
REMARK    5  A    between atoms: C6_9  and  O4_10
REMARK    6  A    between atoms: C7_11  and  O5_12
REMARK    7  A    between atoms: O5_12  and  C8_13
REMARK    8  A    between atoms: C9_14  and  O6_15
REMARK    9  A    between atoms: C10_16  and  O7_17
REMARK   10  A    between atoms: C11_18  and  O8_19
REMARK   11  A    between atoms: C12_21  and  C13_22
REMARK   12  A    between atoms: C13_22  and  O10_23
REMARK   13  A    between atoms: C14_25  and  C15_26
REMARK   14  A    between atoms: C15_26  and  O12_27
REMARK   15  A    between atoms: C16_28  and  O13_29
REMARK   16  A    between atoms: C17_30  and  O14_31
REMARK   17  A    between atoms: C18_32  and  N1_33
REMARK   18  A    between atoms: N1_33  and  C19_34
REMARK   19  A    between atoms: C21_36  and  C22_37
REMARK   20  A    between atoms: C22_37  and  O15_38
REMARK   21  A    between atoms: C23_39  and  O16_40
REMARK   22  A    between atoms: C24_41  and  O17_42
REMARK   23  A    between atoms: C25_43  and  O18_44
REMARK                            x       y       z     vdW  Elec       q    Type
REMARK                         _______ _______ _______ _____ _____    ______ ____
ROOT
ATOM      1  O2  UNL     1      30.518  -9.367 -40.204  0.00  0.00    +0.000 OA
ENDROOT
BRANCH   1   5
ATOM      2  C1  UNL     1      30.952  -6.400 -37.086  0.00  0.00    +0.000 C 
ATOM      3  C2  UNL     1      30.320  -7.801 -37.011  0.00  0.00    +0.000 C 
ATOM      4  O1  UNL     1      29.914  -8.294 -38.279  0.00  0.00    +0.000 OA
ATOM      5  C3  UNL     1      30.987  -8.488 -39.192  0.00  0.00    +0.000 C 
ATOM      6  C16 UNL     1      32.250  -9.110 -38.529  0.00  0.00    +0.000 C 
ATOM      7  C17 UNL     1      31.900  -9.822 -37.210  0.00  0.00    +0.000 C 
ATOM      8  C18 UNL     1      31.183  -8.846 -36.235  0.00  0.00    +0.000 C 
BRANCH   8   9
ATOM      9  N1  UNL     1      30.305  -9.557 -35.275  0.00  0.00    +0.000 NA
ATOM     10  H32 UNL     1      30.908  -9.950 -34.515  0.00  0.00    +0.000 HD
BRANCH   9  11
ATOM     11  C19 UNL     1      29.244  -8.741 -34.647  0.00  0.00    +0.000 C 
ATOM     12  C20 UNL     1      27.860  -9.298 -34.907  0.00  0.00    +0.000 C 
ATOM     13  C21 UNL     1      26.804  -8.772 -34.258  0.00  0.00    +0.000 C 
ATOM     14  C23 UNL     1      27.070  -7.663 -33.246  0.00  0.00    +0.000 C 
ATOM     15  C24 UNL     1      28.242  -8.077 -32.322  0.00  0.00    +0.000 C 
ATOM     16  C25 UNL     1      29.477  -8.638 -33.112  0.00  0.00    +0.000 C 
BRANCH  16  17
ATOM     17  O18 UNL     1      29.871  -9.879 -32.575  0.00  0.00    +0.000 OA
ATOM     18  H43 UNL     1      29.900  -9.782 -31.588  0.00  0.00    +0.000 HD
ENDBRANCH  16  17
BRANCH  15  19
ATOM     19  O17 UNL     1      28.633  -6.969 -31.551  0.00  0.00    +0.000 OA
ATOM     20  H41 UNL     1      29.337  -7.288 -30.929  0.00  0.00    +0.000 HD
ENDBRANCH  15  19
BRANCH  14  21
ATOM     21  O16 UNL     1      25.922  -7.391 -32.485  0.00  0.00    +0.000 OA
ATOM     22  H39 UNL     1      26.231  -7.103 -31.586  0.00  0.00    +0.000 HD
ENDBRANCH  14  21
BRANCH  13  23
ATOM     23  C22 UNL     1      25.419  -9.333 -34.512  0.00  0.00    +0.000 C 
BRANCH  23  24
ATOM     24  O15 UNL     1      25.416 -10.721 -34.321  0.00  0.00    +0.000 OA
ATOM     25  H37 UNL     1      26.156 -11.080 -34.880  0.00  0.00    +0.000 HD
ENDBRANCH  23  24
ENDBRANCH  13  23
ENDBRANCH   9  11
ENDBRANCH   8   9
BRANCH   7  26
ATOM     26  O14 UNL     1      33.085 -10.289 -36.618  0.00  0.00    +0.000 OA
ATOM     27  H30 UNL     1      33.542  -9.506 -36.216  0.00  0.00    +0.000 HD
ENDBRANCH   7  26
BRANCH   6  28
ATOM     28  O13 UNL     1      32.935  -9.964 -39.415  0.00  0.00    +0.000 OA
ATOM     29  H28 UNL     1      33.261 -10.744 -38.896  0.00  0.00    +0.000 HD
ENDBRANCH   6  28
ENDBRANCH   1   5
BRANCH   1  30
ATOM     30  C4  UNL     1      29.264  -8.989 -40.750  0.00  0.00    +0.000 C 
ATOM     31  C5  UNL     1      29.520  -8.013 -41.912  0.00  0.00    +0.000 C 
ATOM     32  C6  UNL     1      28.193  -7.593 -42.580  0.00  0.00    +0.000 C 
ATOM     33  C7  UNL     1      27.170  -8.753 -42.541  0.00  0.00    +0.000 C 
ATOM     34  O11 UNL     1      27.835 -10.007 -42.531  0.00  0.00    +0.000 OA
ATOM     35  C14 UNL     1      28.517 -10.243 -41.300  0.00  0.00    +0.000 C 
BRANCH  32  36
ATOM     36  O4  UNL     1      28.440  -7.197 -43.907  0.00  0.00    +0.000 OA
ATOM     37  H10 UNL     1      29.063  -7.868 -44.294  0.00  0.00    +0.000 HD
ENDBRANCH  32  36
BRANCH  31  38
ATOM     38  O3  UNL     1      30.241  -6.886 -41.481  0.00  0.00    +0.000 OA
ATOM     39  H8  UNL     1      31.107  -6.881 -41.964  0.00  0.00    +0.000 HD
ENDBRANCH  31  38
BRANCH  35  40
ATOM     40  C15 UNL     1      27.569 -10.867 -40.255  0.00  0.00    +0.000 C 
BRANCH  40  41
ATOM     41  O12 UNL     1      28.154 -10.835 -38.981  0.00  0.00    +0.000 OA
ATOM     42  H26 UNL     1      28.564  -9.935 -38.880  0.00  0.00    +0.000 HD
ENDBRANCH  40  41
ENDBRANCH  35  40
BRANCH  33  43
ATOM     43  O5  UNL     1      26.329  -8.674 -43.677  0.00  0.00    +0.000 OA
BRANCH  43  44
ATOM     44  C8  UNL     1      25.107  -8.013 -43.384  0.00  0.00    +0.000 C 
ATOM     45  C9  UNL     1      24.306  -7.809 -44.683  0.00  0.00    +0.000 C 
ATOM     46  C10 UNL     1      22.963  -7.125 -44.370  0.00  0.00    +0.000 C 
ATOM     47  C11 UNL     1      22.398  -7.596 -43.002  0.00  0.00    +0.000 C 
ATOM     48  O9  UNL     1      22.870  -8.889 -42.663  0.00  0.00    +0.000 OA
ATOM     49  C12 UNL     1      24.277  -8.906 -42.414  0.00  0.00    +0.000 C 
BRANCH  47  50
ATOM     50  O8  UNL     1      20.993  -7.590 -42.993  0.00  0.00    +0.000 OA
ATOM     51  H18 UNL     1      20.704  -7.574 -42.041  0.00  0.00    +0.000 HD
ENDBRANCH  47  50
BRANCH  46  52
ATOM     52  O7  UNL     1      22.061  -7.390 -45.419  0.00  0.00    +0.000 OA
ATOM     53  H16 UNL     1      21.700  -6.517 -45.724  0.00  0.00    +0.000 HD
ENDBRANCH  46  52
BRANCH  45  54
ATOM     54  O6  UNL     1      25.026  -7.007 -45.586  0.00  0.00    +0.000 OA
ATOM     55  H14 UNL     1      25.633  -7.613 -46.085  0.00  0.00    +0.000 HD
ENDBRANCH  45  54
BRANCH  49  56
ATOM     56  C13 UNL     1      24.579  -8.578 -40.945  0.00  0.00    +0.000 C 
BRANCH  56  57
ATOM     57  O10 UNL     1      24.105  -9.610 -40.117  0.00  0.00    +0.000 OA
ATOM     58  H22 UNL     1      23.132  -9.461 -39.985  0.00  0.00    +0.000 HD
ENDBRANCH  56  57
ENDBRANCH  49  56
ENDBRANCH  43  44
ENDBRANCH  33  43
ENDBRANCH   1  30
TORSDOF 22
ENDMDL
MODEL 5
REMARK VINA RESULT:    -5.750      1.686      2.577
REMARK INTER + INTRA:         -13.390
REMARK INTER:                 -10.353
REMARK INTRA:                  -3.038
REMARK UNBOUND:                -2.430
REMARK  Name = resultss/4CJN/ligands/lig_358_t0.pdb
REMARK  23 active torsions:
REMARK  status: ('A' for Active; 'I' for Inactive)
REMARK    1  A    between atoms: C1_1  and  C2_2
REMARK    2  A    between atoms: C3_4  and  O2_5
REMARK    3  A    between atoms: O2_5  and  C4_6
REMARK    4  A    between atoms: C5_7  and  O3_8
REMARK    5  A    between atoms: C6_9  and  O4_10
REMARK    6  A    between atoms: C7_11  and  O5_12
REMARK    7  A    between atoms: O5_12  and  C8_13
REMARK    8  A    between atoms: C9_14  and  O6_15
REMARK    9  A    between atoms: C10_16  and  O7_17
REMARK   10  A    between atoms: C11_18  and  O8_19
REMARK   11  A    between atoms: C12_21  and  C13_22
REMARK   12  A    between atoms: C13_22  and  O10_23
REMARK   13  A    between atoms: C14_25  and  C15_26
REMARK   14  A    between atoms: C15_26  and  O12_27
REMARK   15  A    between atoms: C16_28  and  O13_29
REMARK   16  A    between atoms: C17_30  and  O14_31
REMARK   17  A    between atoms: C18_32  and  N1_33
REMARK   18  A    between atoms: N1_33  and  C19_34
REMARK   19  A    between atoms: C21_36  and  C22_37
REMARK   20  A    between atoms: C22_37  and  O15_38
REMARK   21  A    between atoms: C23_39  and  O16_40
REMARK   22  A    between atoms: C24_41  and  O17_42
REMARK   23  A    between atoms: C25_43  and  O18_44
REMARK                            x       y       z     vdW  Elec       q    Type
REMARK                         _______ _______ _______ _____ _____    ______ ____
ROOT
ATOM      1  O2  UNL     1      27.507  -9.415 -42.180  0.00  0.00    +0.000 OA
ENDROOT
BRANCH   1   5
ATOM      2  C1  UNL     1      30.119  -7.565 -39.271  0.00  0.00    +0.000 C 
ATOM      3  C2  UNL     1      28.594  -7.759 -39.220  0.00  0.00    +0.000 C 
ATOM      4  O1  UNL     1      28.017  -7.949 -40.504  0.00  0.00    +0.000 OA
ATOM      5  C3  UNL     1      28.456  -9.129 -41.164  0.00  0.00    +0.000 C 
ATOM      6  C16 UNL     1      28.564 -10.358 -40.214  0.00  0.00    +0.000 C 
ATOM      7  C17 UNL     1      27.718 -10.162 -38.943  0.00  0.00    +0.000 C 
ATOM      8  C18 UNL     1      28.127  -8.854 -38.210  0.00  0.00    +0.000 C 
BRANCH   8   9
ATOM      9  N1  UNL     1      27.019  -8.297 -37.396  0.00  0.00    +0.000 NA
ATOM     10  H32 UNL     1      26.235  -8.991 -37.398  0.00  0.00    +0.000 HD
BRANCH   9  11
ATOM     11  C19 UNL     1      27.349  -7.978 -35.991  0.00  0.00    +0.000 C 
ATOM     12  C20 UNL     1      26.246  -7.204 -35.301  0.00  0.00    +0.000 C 
ATOM     13  C21 UNL     1      26.317  -6.993 -33.973  0.00  0.00    +0.000 C 
ATOM     14  C23 UNL     1      27.496  -7.596 -33.219  0.00  0.00    +0.000 C 
ATOM     15  C24 UNL     1      27.675  -9.077 -33.638  0.00  0.00    +0.000 C 
ATOM     16  C25 UNL     1      27.638  -9.283 -35.193  0.00  0.00    +0.000 C 
BRANCH  16  17
ATOM     17  O18 UNL     1      26.715 -10.294 -35.525  0.00  0.00    +0.000 OA
ATOM     18  H43 UNL     1      25.873  -9.849 -35.804  0.00  0.00    +0.000 HD
ENDBRANCH  16  17
BRANCH  15  19
ATOM     19  O17 UNL     1      28.891  -9.557 -33.121  0.00  0.00    +0.000 OA
ATOM     20  H41 UNL     1      29.587  -8.894 -33.366  0.00  0.00    +0.000 HD
ENDBRANCH  15  19
BRANCH  14  21
ATOM     21  O16 UNL     1      27.307  -7.502 -31.831  0.00  0.00    +0.000 OA
ATOM     22  H39 UNL     1      27.888  -8.188 -31.411  0.00  0.00    +0.000 HD
ENDBRANCH  14  21
BRANCH  13  23
ATOM     23  C22 UNL     1      25.210  -6.224 -33.281  0.00  0.00    +0.000 C 
BRANCH  23  24
ATOM     24  O15 UNL     1      24.435  -7.089 -32.498  0.00  0.00    +0.000 OA
ATOM     25  H37 UNL     1      24.532  -7.992 -32.902  0.00  0.00    +0.000 HD
ENDBRANCH  23  24
ENDBRANCH  13  23
ENDBRANCH   9  11
ENDBRANCH   8   9
BRANCH   7  26
ATOM     26  O14 UNL     1      27.918 -11.259 -38.091  0.00  0.00    +0.000 OA
ATOM     27  H30 UNL     1      27.657 -12.074 -38.593  0.00  0.00    +0.000 HD
ENDBRANCH   7  26
BRANCH   6  28
ATOM     28  O13 UNL     1      28.237 -11.557 -40.876  0.00  0.00    +0.000 OA
ATOM     29  H28 UNL     1      28.548 -12.311 -40.312  0.00  0.00    +0.000 HD
ENDBRANCH   6  28
ENDBRANCH   1   5
BRANCH   1  30
ATOM     30  C4  UNL     1      26.750  -8.285 -42.585  0.00  0.00    +0.000 C 
ATOM     31  C5  UNL     1      27.377  -7.722 -43.873  0.00  0.00    +0.000 C 
ATOM     32  C6  UNL     1      26.573  -6.512 -44.393  0.00  0.00    +0.000 C 
ATOM     33  C7  UNL     1      25.066  -6.681 -44.082  0.00  0.00    +0.000 C 
ATOM     34  O11 UNL     1      24.719  -8.056 -44.026  0.00  0.00    +0.000 OA
ATOM     35  C14 UNL     1      25.277  -8.704 -42.883  0.00  0.00    +0.000 C 
BRANCH  32  36
ATOM     36  O4  UNL     1      26.779  -6.369 -45.777  0.00  0.00    +0.000 OA
ATOM     37  H10 UNL     1      26.043  -5.794 -46.117  0.00  0.00    +0.000 HD
ENDBRANCH  32  36
BRANCH  31  38
ATOM     38  O3  UNL     1      28.726  -7.379 -43.675  0.00  0.00    +0.000 OA
ATOM     39  H8  UNL     1      29.280  -8.108 -44.054  0.00  0.00    +0.000 HD
ENDBRANCH  31  38
BRANCH  35  40
ATOM     40  C15 UNL     1      24.360  -8.539 -41.653  0.00  0.00    +0.000 C 
BRANCH  40  41
ATOM     41  O12 UNL     1      25.115  -8.202 -40.521  0.00  0.00    +0.000 OA
ATOM     42  H26 UNL     1      24.734  -7.354 -40.168  0.00  0.00    +0.000 HD
ENDBRANCH  40  41
ENDBRANCH  35  40
BRANCH  33  43
ATOM     43  O5  UNL     1      24.305  -6.045 -45.092  0.00  0.00    +0.000 OA
BRANCH  43  44
ATOM     44  C8  UNL     1      23.072  -6.711 -45.323  0.00  0.00    +0.000 C 
ATOM     45  C9  UNL     1      21.968  -6.064 -44.467  0.00  0.00    +0.000 C 
ATOM     46  C10 UNL     1      20.620  -6.756 -44.738  0.00  0.00    +0.000 C 
ATOM     47  C11 UNL     1      20.500  -7.192 -46.224  0.00  0.00    +0.000 C 
ATOM     48  O9  UNL     1      21.301  -6.383 -47.067  0.00  0.00    +0.000 OA
ATOM     49  C12 UNL     1      22.698  -6.562 -46.827  0.00  0.00    +0.000 C 
BRANCH  47  50
ATOM     50  O8  UNL     1      19.167  -7.159 -46.666  0.00  0.00    +0.000 OA
ATOM     51  H18 UNL     1      18.706  -6.439 -46.159  0.00  0.00    +0.000 HD
ENDBRANCH  47  50
BRANCH  46  52
ATOM     52  O7  UNL     1      19.577  -5.884 -44.370  0.00  0.00    +0.000 OA
ATOM     53  H16 UNL     1      19.837  -4.973 -44.666  0.00  0.00    +0.000 HD
ENDBRANCH  46  52
BRANCH  45  54
ATOM     54  O6  UNL     1      22.272  -6.178 -43.099  0.00  0.00    +0.000 OA
ATOM     55  H14 UNL     1      22.581  -5.284 -42.800  0.00  0.00    +0.000 HD
ENDBRANCH  45  54
BRANCH  49  56
ATOM     56  C13 UNL     1      23.256  -7.721 -47.667  0.00  0.00    +0.000 C 
BRANCH  56  57
ATOM     57  O10 UNL     1      24.661  -7.705 -47.630  0.00  0.00    +0.000 OA
ATOM     58  H22 UNL     1      24.984  -8.034 -48.510  0.00  0.00    +0.000 HD
ENDBRANCH  56  57
ENDBRANCH  49  56
ENDBRANCH  43  44
ENDBRANCH  33  43
ENDBRANCH   1  30
TORSDOF 22
ENDMDL
MODEL 6
REMARK VINA RESULT:    -5.360      4.213     11.082
REMARK INTER + INTRA:         -12.647
REMARK INTER:                 -10.975
REMARK INTRA:                  -1.673
REMARK UNBOUND:                -2.430
REMARK  Name = resultss/4CJN/ligands/lig_358_t0.pdb
REMARK  23 active torsions:
REMARK  status: ('A' for Active; 'I' for Inactive)
REMARK    1  A    between atoms: C1_1  and  C2_2
REMARK    2  A    between atoms: C3_4  and  O2_5
REMARK    3  A    between atoms: O2_5  and  C4_6
REMARK    4  A    between atoms: C5_7  and  O3_8
REMARK    5  A    between atoms: C6_9  and  O4_10
REMARK    6  A    between atoms: C7_11  and  O5_12
REMARK    7  A    between atoms: O5_12  and  C8_13
REMARK    8  A    between atoms: C9_14  and  O6_15
REMARK    9  A    between atoms: C10_16  and  O7_17
REMARK   10  A    between atoms: C11_18  and  O8_19
REMARK   11  A    between atoms: C12_21  and  C13_22
REMARK   12  A    between atoms: C13_22  and  O10_23
REMARK   13  A    between atoms: C14_25  and  C15_26
REMARK   14  A    between atoms: C15_26  and  O12_27
REMARK   15  A    between atoms: C16_28  and  O13_29
REMARK   16  A    between atoms: C17_30  and  O14_31
REMARK   17  A    between atoms: C18_32  and  N1_33
REMARK   18  A    between atoms: N1_33  and  C19_34
REMARK   19  A    between atoms: C21_36  and  C22_37
REMARK   20  A    between atoms: C22_37  and  O15_38
REMARK   21  A    between atoms: C23_39  and  O16_40
REMARK   22  A    between atoms: C24_41  and  O17_42
REMARK   23  A    between atoms: C25_43  and  O18_44
REMARK                            x       y       z     vdW  Elec       q    Type
REMARK                         _______ _______ _______ _____ _____    ______ ____
ROOT
ATOM      1  O2  UNL     1      27.911  -9.988 -37.640  0.00  0.00    +0.000 OA
ENDROOT
BRANCH   1   5
ATOM      2  C1  UNL     1      27.920  -6.183 -39.698  0.00  0.00    +0.000 C 
ATOM      3  C2  UNL     1      27.771  -7.601 -40.279  0.00  0.00    +0.000 C 
ATOM      4  O1  UNL     1      28.287  -8.607 -39.420  0.00  0.00    +0.000 OA
ATOM      5  C3  UNL     1      27.604  -8.710 -38.178  0.00  0.00    +0.000 C 
ATOM      6  C16 UNL     1      26.059  -8.579 -38.315  0.00  0.00    +0.000 C 
ATOM      7  C17 UNL     1      25.596  -8.870 -39.754  0.00  0.00    +0.000 C 
ATOM      8  C18 UNL     1      26.326  -7.939 -40.763  0.00  0.00    +0.000 C 
BRANCH   8   9
ATOM      9  N1  UNL     1      26.415  -8.539 -42.116  0.00  0.00    +0.000 NA
ATOM     10  H32 UNL     1      25.891  -9.446 -42.103  0.00  0.00    +0.000 HD
BRANCH   9  11
ATOM     11  C19 UNL     1      25.884  -7.715 -43.222  0.00  0.00    +0.000 C 
ATOM     12  C20 UNL     1      26.812  -7.690 -44.419  0.00  0.00    +0.000 C 
ATOM     13  C21 UNL     1      26.391  -7.131 -45.569  0.00  0.00    +0.000 C 
ATOM     14  C23 UNL     1      24.967  -6.591 -45.619  0.00  0.00    +0.000 C 
ATOM     15  C24 UNL     1      23.994  -7.643 -45.031  0.00  0.00    +0.000 C 
ATOM     16  C25 UNL     1      24.487  -8.239 -43.666  0.00  0.00    +0.000 C 
BRANCH  16  17
ATOM     17  O18 UNL     1      24.467  -9.647 -43.716  0.00  0.00    +0.000 OA
ATOM     18  H43 UNL     1      24.777  -9.980 -42.834  0.00  0.00    +0.000 HD
ENDBRANCH  16  17
BRANCH  15  19
ATOM     19  O17 UNL     1      22.727  -7.057 -44.867  0.00  0.00    +0.000 OA
ATOM     20  H41 UNL     1      22.840  -6.310 -44.225  0.00  0.00    +0.000 HD
ENDBRANCH  15  19
BRANCH  14  21
ATOM     21  O16 UNL     1      24.598  -6.267 -46.935  0.00  0.00    +0.000 OA
ATOM     22  H39 UNL     1      25.185  -5.522 -47.227  0.00  0.00    +0.000 HD
ENDBRANCH  14  21
BRANCH  13  23
ATOM     23  C22 UNL     1      27.317  -7.111 -46.769  0.00  0.00    +0.000 C 
BRANCH  23  24
ATOM     24  O15 UNL     1      26.738  -7.806 -47.839  0.00  0.00    +0.000 OA
ATOM     25  H37 UNL     1      26.745  -8.766 -47.583  0.00  0.00    +0.000 HD
ENDBRANCH  23  24
ENDBRANCH  13  23
ENDBRANCH   9  11
ENDBRANCH   8   9
BRANCH   7  26
ATOM     26  O14 UNL     1      24.211  -8.656 -39.837  0.00  0.00    +0.000 OA
ATOM     27  H30 UNL     1      23.770  -9.374 -39.314  0.00  0.00    +0.000 HD
ENDBRANCH   7  26
BRANCH   6  28
ATOM     28  O13 UNL     1      25.383  -9.384 -37.379  0.00  0.00    +0.000 OA
ATOM     29  H28 UNL     1      26.063  -9.819 -36.802  0.00  0.00    +0.000 HD
ENDBRANCH   6  28
ENDBRANCH   1   5
BRANCH   1  30
ATOM     30  C4  UNL     1      28.829  -9.945 -36.558  0.00  0.00    +0.000 C 
ATOM     31  C5  UNL     1      30.190  -9.475 -37.102  0.00  0.00    +0.000 C 
ATOM     32  C6  UNL     1      31.228  -9.364 -35.964  0.00  0.00    +0.000 C 
ATOM     33  C7  UNL     1      30.547  -8.931 -34.643  0.00  0.00    +0.000 C 
ATOM     34  O11 UNL     1      29.391  -8.152 -34.908  0.00  0.00    +0.000 OA
ATOM     35  C14 UNL     1      28.339  -8.930 -35.479  0.00  0.00    +0.000 C 
BRANCH  32  36
ATOM     36  O4  UNL     1      32.228  -8.444 -36.328  0.00  0.00    +0.000 OA
ATOM     37  H10 UNL     1      32.855  -8.929 -36.929  0.00  0.00    +0.000 HD
ENDBRANCH  32  36
BRANCH  31  38
ATOM     38  O3  UNL     1      30.654 -10.326 -38.120  0.00  0.00    +0.000 OA
ATOM     39  H8  UNL     1      31.417 -10.842 -37.755  0.00  0.00    +0.000 HD
ENDBRANCH  31  38
BRANCH  35  40
ATOM     40  C15 UNL     1      27.493  -9.606 -34.380  0.00  0.00    +0.000 C 
BRANCH  40  41
ATOM     41  O12 UNL     1      26.453 -10.352 -34.952  0.00  0.00    +0.000 OA
ATOM     42  H26 UNL     1      26.781 -11.287 -35.025  0.00  0.00    +0.000 HD
ENDBRANCH  40  41
ENDBRANCH  35  40
BRANCH  33  43
ATOM     43  O5  UNL     1      31.460  -8.171 -33.873  0.00  0.00    +0.000 OA
BRANCH  43  44
ATOM     44  C8  UNL     1      32.030  -8.939 -32.822  0.00  0.00    +0.000 C 
ATOM     45  C9  UNL     1      31.366 -10.327 -32.778  0.00  0.00    +0.000 C 
ATOM     46  C10 UNL     1      32.002 -11.180 -31.666  0.00  0.00    +0.000 C 
ATOM     47  C11 UNL     1      33.519 -10.877 -31.524  0.00  0.00    +0.000 C 
ATOM     48  O9  UNL     1      34.067 -10.398 -32.740  0.00  0.00    +0.000 OA
ATOM     49  C12 UNL     1      33.551  -9.116 -33.101  0.00  0.00    +0.000 C 
BRANCH  47  50
ATOM     50  O8  UNL     1      34.234 -12.009 -31.098  0.00  0.00    +0.000 OA
ATOM     51  H18 UNL     1      35.168 -11.717 -30.920  0.00  0.00    +0.000 HD
ENDBRANCH  47  50
BRANCH  46  52
ATOM     52  O7  UNL     1      31.771 -12.540 -31.945  0.00  0.00    +0.000 OA
ATOM     53  H16 UNL     1      32.267 -12.759 -32.777  0.00  0.00    +0.000 HD
ENDBRANCH  46  52
BRANCH  45  54
ATOM     54  O6  UNL     1      29.987 -10.208 -32.529  0.00  0.00    +0.000 OA
ATOM     55  H14 UNL     1      29.828 -10.577 -31.621  0.00  0.00    +0.000 HD
ENDBRANCH  45  54
BRANCH  49  56
ATOM     56  C13 UNL     1      34.379  -7.990 -32.463  0.00  0.00    +0.000 C 
BRANCH  56  57
ATOM     57  O10 UNL     1      34.003  -6.751 -33.009  0.00  0.00    +0.000 OA
ATOM     58  H22 UNL     1      34.642  -6.544 -33.741  0.00  0.00    +0.000 HD
ENDBRANCH  56  57
ENDBRANCH  49  56
ENDBRANCH  43  44
ENDBRANCH  33  43
ENDBRANCH   1  30
TORSDOF 22
ENDMDL
MODEL 7
REMARK VINA RESULT:    -5.215      2.997      9.501
REMARK INTER + INTRA:         -12.370
REMARK INTER:                  -8.925
REMARK INTRA:                  -3.445
REMARK UNBOUND:                -2.430
REMARK  Name = resultss/4CJN/ligands/lig_358_t0.pdb
REMARK  23 active torsions:
REMARK  status: ('A' for Active; 'I' for Inactive)
REMARK    1  A    between atoms: C1_1  and  C2_2
REMARK    2  A    between atoms: C3_4  and  O2_5
REMARK    3  A    between atoms: O2_5  and  C4_6
REMARK    4  A    between atoms: C5_7  and  O3_8
REMARK    5  A    between atoms: C6_9  and  O4_10
REMARK    6  A    between atoms: C7_11  and  O5_12
REMARK    7  A    between atoms: O5_12  and  C8_13
REMARK    8  A    between atoms: C9_14  and  O6_15
REMARK    9  A    between atoms: C10_16  and  O7_17
REMARK   10  A    between atoms: C11_18  and  O8_19
REMARK   11  A    between atoms: C12_21  and  C13_22
REMARK   12  A    between atoms: C13_22  and  O10_23
REMARK   13  A    between atoms: C14_25  and  C15_26
REMARK   14  A    between atoms: C15_26  and  O12_27
REMARK   15  A    between atoms: C16_28  and  O13_29
REMARK   16  A    between atoms: C17_30  and  O14_31
REMARK   17  A    between atoms: C18_32  and  N1_33
REMARK   18  A    between atoms: N1_33  and  C19_34
REMARK   19  A    between atoms: C21_36  and  C22_37
REMARK   20  A    between atoms: C22_37  and  O15_38
REMARK   21  A    between atoms: C23_39  and  O16_40
REMARK   22  A    between atoms: C24_41  and  O17_42
REMARK   23  A    between atoms: C25_43  and  O18_44
REMARK                            x       y       z     vdW  Elec       q    Type
REMARK                         _______ _______ _______ _____ _____    ______ ____
ROOT
ATOM      1  O2  UNL     1      27.539  -6.340 -39.825  0.00  0.00    +0.000 OA
ENDROOT
BRANCH   1   5
ATOM      2  C1  UNL     1      28.368 -10.516 -40.590  0.00  0.00    +0.000 C 
ATOM      3  C2  UNL     1      27.237  -9.633 -41.147  0.00  0.00    +0.000 C 
ATOM      4  O1  UNL     1      26.977  -8.493 -40.341  0.00  0.00    +0.000 OA
ATOM      5  C3  UNL     1      28.067  -7.584 -40.261  0.00  0.00    +0.000 C 
ATOM      6  C16 UNL     1      28.791  -7.375 -41.623  0.00  0.00    +0.000 C 
ATOM      7  C17 UNL     1      27.893  -7.780 -42.805  0.00  0.00    +0.000 C 
ATOM      8  C18 UNL     1      27.413  -9.250 -42.650  0.00  0.00    +0.000 C 
BRANCH   8   9
ATOM      9  N1  UNL     1      26.128  -9.497 -43.348  0.00  0.00    +0.000 NA
ATOM     10  H32 UNL     1      25.678 -10.335 -42.911  0.00  0.00    +0.000 HD
BRANCH   9  11
ATOM     11  C19 UNL     1      25.156  -8.384 -43.321  0.00  0.00    +0.000 C 
ATOM     12  C20 UNL     1      24.627  -8.046 -44.699  0.00  0.00    +0.000 C 
ATOM     13  C21 UNL     1      23.606  -7.178 -44.820  0.00  0.00    +0.000 C 
ATOM     14  C23 UNL     1      22.996  -6.612 -43.543  0.00  0.00    +0.000 C 
ATOM     15  C24 UNL     1      22.735  -7.765 -42.541  0.00  0.00    +0.000 C 
ATOM     16  C25 UNL     1      23.962  -8.730 -42.383  0.00  0.00    +0.000 C 
BRANCH  16  17
ATOM     17  O18 UNL     1      23.553 -10.066 -42.558  0.00  0.00    +0.000 OA
ATOM     18  H43 UNL     1      23.065 -10.338 -41.738  0.00  0.00    +0.000 HD
ENDBRANCH  16  17
BRANCH  15  19
ATOM     19  O17 UNL     1      22.393  -7.219 -41.291  0.00  0.00    +0.000 OA
ATOM     20  H41 UNL     1      21.406  -7.275 -41.216  0.00  0.00    +0.000 HD
ENDBRANCH  15  19
BRANCH  14  21
ATOM     21  O16 UNL     1      21.803  -5.925 -43.816  0.00  0.00    +0.000 OA
ATOM     22  H39 UNL     1      21.115  -6.609 -44.030  0.00  0.00    +0.000 HD
ENDBRANCH  14  21
BRANCH  13  23
ATOM     23  C22 UNL     1      23.072  -6.844 -46.199  0.00  0.00    +0.000 C 
BRANCH  23  24
ATOM     24  O15 UNL     1      21.847  -7.490 -46.414  0.00  0.00    +0.000 OA
ATOM     25  H37 UNL     1      21.262  -6.831 -46.874  0.00  0.00    +0.000 HD
ENDBRANCH  23  24
ENDBRANCH  13  23
ENDBRANCH   9  11
ENDBRANCH   8   9
BRANCH   7  26
ATOM     26  O14 UNL     1      28.625  -7.649 -43.997  0.00  0.00    +0.000 OA
ATOM     27  H30 UNL     1      29.568  -7.472 -43.746  0.00  0.00    +0.000 HD
ENDBRANCH   7  26
BRANCH   6  28
ATOM     28  O13 UNL     1      29.270  -6.058 -41.761  0.00  0.00    +0.000 OA
ATOM     29  H28 UNL     1      28.505  -5.479 -42.014  0.00  0.00    +0.000 HD
ENDBRANCH   6  28
ENDBRANCH   1   5
BRANCH   1  30
ATOM     30  C4  UNL     1      27.811  -6.052 -38.463  0.00  0.00    +0.000 C 
ATOM     31  C5  UNL     1      26.637  -6.574 -37.617  0.00  0.00    +0.000 C 
ATOM     32  C6  UNL     1      26.891  -6.330 -36.114  0.00  0.00    +0.000 C 
ATOM     33  C7  UNL     1      28.400  -6.440 -35.789  0.00  0.00    +0.000 C 
ATOM     34  O11 UNL     1      29.044  -7.321 -36.696  0.00  0.00    +0.000 OA
ATOM     35  C14 UNL     1      29.118  -6.776 -38.012  0.00  0.00    +0.000 C 
BRANCH  32  36
ATOM     36  O4  UNL     1      26.153  -7.258 -35.355  0.00  0.00    +0.000 OA
ATOM     37  H10 UNL     1      25.766  -7.909 -35.999  0.00  0.00    +0.000 HD
ENDBRANCH  32  36
BRANCH  31  38
ATOM     38  O3  UNL     1      25.421  -5.994 -38.019  0.00  0.00    +0.000 OA
ATOM     39  H8  UNL     1      25.635  -5.244 -38.631  0.00  0.00    +0.000 HD
ENDBRANCH  31  38
BRANCH  35  40
ATOM     40  C15 UNL     1      30.367  -5.884 -38.170  0.00  0.00    +0.000 C 
BRANCH  40  41
ATOM     41  O12 UNL     1      31.510  -6.555 -37.712  0.00  0.00    +0.000 OA
ATOM     42  H26 UNL     1      32.161  -5.854 -37.443  0.00  0.00    +0.000 HD
ENDBRANCH  40  41
ENDBRANCH  35  40
BRANCH  33  43
ATOM     43  O5  UNL     1      28.560  -6.924 -34.468  0.00  0.00    +0.000 OA
BRANCH  43  44
ATOM     44  C8  UNL     1      29.463  -8.020 -34.414  0.00  0.00    +0.000 C 
ATOM     45  C9  UNL     1      30.796  -7.560 -33.796  0.00  0.00    +0.000 C 
ATOM     46  C10 UNL     1      31.768  -8.749 -33.700  0.00  0.00    +0.000 C 
ATOM     47  C11 UNL     1      31.012 -10.069 -33.386  0.00  0.00    +0.000 C 
ATOM     48  O9  UNL     1      29.797  -9.820 -32.700  0.00  0.00    +0.000 OA
ATOM     49  C12 UNL     1      28.846  -9.130 -33.513  0.00  0.00    +0.000 C 
BRANCH  47  50
ATOM     50  O8  UNL     1      31.805 -10.952 -32.634  0.00  0.00    +0.000 OA
ATOM     51  H18 UNL     1      32.167 -11.632 -33.264  0.00  0.00    +0.000 HD
ENDBRANCH  47  50
BRANCH  46  52
ATOM     52  O7  UNL     1      32.740  -8.466 -32.721  0.00  0.00    +0.000 OA
ATOM     53  H16 UNL     1      32.845  -9.282 -32.166  0.00  0.00    +0.000 HD
ENDBRANCH  46  52
BRANCH  45  54
ATOM     54  O6  UNL     1      31.384  -6.554 -34.583  0.00  0.00    +0.000 OA
ATOM     55  H14 UNL     1      32.032  -6.078 -34.001  0.00  0.00    +0.000 HD
ENDBRANCH  45  54
BRANCH  49  56
ATOM     56  C13 UNL     1      28.002 -10.119 -34.331  0.00  0.00    +0.000 C 
BRANCH  56  57
ATOM     57  O10 UNL     1      27.971  -9.721 -35.679  0.00  0.00    +0.000 OA
ATOM     58  H22 UNL     1      27.603  -8.799 -35.707  0.00  0.00    +0.000 HD
ENDBRANCH  56  57
ENDBRANCH  49  56
ENDBRANCH  43  44
ENDBRANCH  33  43
ENDBRANCH   1  30
TORSDOF 22
ENDMDL
MODEL 8
REMARK VINA RESULT:    -5.205      3.306      9.885
REMARK INTER + INTRA:         -12.351
REMARK INTER:                 -10.349
REMARK INTRA:                  -2.001
REMARK UNBOUND:                -2.430
REMARK  Name = resultss/4CJN/ligands/lig_358_t0.pdb
REMARK  23 active torsions:
REMARK  status: ('A' for Active; 'I' for Inactive)
REMARK    1  A    between atoms: C1_1  and  C2_2
REMARK    2  A    between atoms: C3_4  and  O2_5
REMARK    3  A    between atoms: O2_5  and  C4_6
REMARK    4  A    between atoms: C5_7  and  O3_8
REMARK    5  A    between atoms: C6_9  and  O4_10
REMARK    6  A    between atoms: C7_11  and  O5_12
REMARK    7  A    between atoms: O5_12  and  C8_13
REMARK    8  A    between atoms: C9_14  and  O6_15
REMARK    9  A    between atoms: C10_16  and  O7_17
REMARK   10  A    between atoms: C11_18  and  O8_19
REMARK   11  A    between atoms: C12_21  and  C13_22
REMARK   12  A    between atoms: C13_22  and  O10_23
REMARK   13  A    between atoms: C14_25  and  C15_26
REMARK   14  A    between atoms: C15_26  and  O12_27
REMARK   15  A    between atoms: C16_28  and  O13_29
REMARK   16  A    between atoms: C17_30  and  O14_31
REMARK   17  A    between atoms: C18_32  and  N1_33
REMARK   18  A    between atoms: N1_33  and  C19_34
REMARK   19  A    between atoms: C21_36  and  C22_37
REMARK   20  A    between atoms: C22_37  and  O15_38
REMARK   21  A    between atoms: C23_39  and  O16_40
REMARK   22  A    between atoms: C24_41  and  O17_42
REMARK   23  A    between atoms: C25_43  and  O18_44
REMARK                            x       y       z     vdW  Elec       q    Type
REMARK                         _______ _______ _______ _____ _____    ______ ____
ROOT
ATOM      1  O2  UNL     1      28.809  -9.424 -40.225  0.00  0.00    +0.000 OA
ENDROOT
BRANCH   1   5
ATOM      2  C1  UNL     1      25.502  -6.643 -40.016  0.00  0.00    +0.000 C 
ATOM      3  C2  UNL     1      26.185  -7.247 -41.256  0.00  0.00    +0.000 C 
ATOM      4  O1  UNL     1      27.499  -7.715 -40.990  0.00  0.00    +0.000 OA
ATOM      5  C3  UNL     1      27.551  -8.787 -40.057  0.00  0.00    +0.000 C 
ATOM      6  C16 UNL     1      26.422  -9.837 -40.267  0.00  0.00    +0.000 C 
ATOM      7  C17 UNL     1      25.838  -9.759 -41.689  0.00  0.00    +0.000 C 
ATOM      8  C18 UNL     1      25.326  -8.323 -41.992  0.00  0.00    +0.000 C 
BRANCH   8   9
ATOM      9  N1  UNL     1      25.339  -8.017 -43.443  0.00  0.00    +0.000 NA
ATOM     10  H32 UNL     1      25.386  -8.924 -43.965  0.00  0.00    +0.000 HD
BRANCH   9  11
ATOM     11  C19 UNL     1      24.180  -7.252 -43.951  0.00  0.00    +0.000 C 
ATOM     12  C20 UNL     1      23.929  -7.497 -45.424  0.00  0.00    +0.000 C 
ATOM     13  C21 UNL     1      22.808  -7.014 -45.992  0.00  0.00    +0.000 C 
ATOM     14  C23 UNL     1      21.816  -6.280 -45.097  0.00  0.00    +0.000 C 
ATOM     15  C24 UNL     1      21.571  -7.107 -43.810  0.00  0.00    +0.000 C 
ATOM     16  C25 UNL     1      22.898  -7.612 -43.144  0.00  0.00    +0.000 C 
BRANCH  16  17
ATOM     17  O18 UNL     1      22.823  -8.998 -42.905  0.00  0.00    +0.000 OA
ATOM     18  H43 UNL     1      22.067  -9.352 -43.441  0.00  0.00    +0.000 HD
ENDBRANCH  16  17
BRANCH  15  19
ATOM     19  O17 UNL     1      20.844  -6.327 -42.894  0.00  0.00    +0.000 OA
ATOM     20  H41 UNL     1      20.438  -5.584 -43.411  0.00  0.00    +0.000 HD
ENDBRANCH  15  19
BRANCH  14  21
ATOM     21  O16 UNL     1      20.604  -6.054 -45.769  0.00  0.00    +0.000 OA
ATOM     22  H39 UNL     1      20.394  -6.882 -46.277  0.00  0.00    +0.000 HD
ENDBRANCH  14  21
BRANCH  13  23
ATOM     23  C22 UNL     1      22.553  -7.264 -47.465  0.00  0.00    +0.000 C 
BRANCH  23  24
ATOM     24  O15 UNL     1      23.110  -8.490 -47.852  0.00  0.00    +0.000 OA
ATOM     25  H37 UNL     1      24.094  -8.392 -47.751  0.00  0.00    +0.000 HD
ENDBRANCH  23  24
ENDBRANCH  13  23
ENDBRANCH   9  11
ENDBRANCH   8   9
BRANCH   7  26
ATOM     26  O14 UNL     1      24.774 -10.668 -41.794  0.00  0.00    +0.000 OA
ATOM     27  H30 UNL     1      24.052 -10.219 -42.306  0.00  0.00    +0.000 HD
ENDBRANCH   7  26
BRANCH   6  28
ATOM     28  O13 UNL     1      26.858 -11.139 -39.955  0.00  0.00    +0.000 OA
ATOM     29  H28 UNL     1      27.823 -11.199 -40.176  0.00  0.00    +0.000 HD
ENDBRANCH   6  28
ENDBRANCH   1   5
BRANCH   1  30
ATOM     30  C4  UNL     1      29.689  -9.245 -39.126  0.00  0.00    +0.000 C 
ATOM     31  C5  UNL     1      30.707  -8.153 -39.497  0.00  0.00    +0.000 C 
ATOM     32  C6  UNL     1      31.671  -7.879 -38.323  0.00  0.00    +0.000 C 
ATOM     33  C7  UNL     1      30.948  -8.063 -36.967  0.00  0.00    +0.000 C 
ATOM     34  O11 UNL     1      29.562  -7.789 -37.098  0.00  0.00    +0.000 OA
ATOM     35  C14 UNL     1      28.889  -8.783 -37.869  0.00  0.00    +0.000 C 
BRANCH  32  36
ATOM     36  O4  UNL     1      32.188  -6.575 -38.434  0.00  0.00    +0.000 OA
ATOM     37  H10 UNL     1      31.707  -6.019 -37.765  0.00  0.00    +0.000 HD
ENDBRANCH  32  36
BRANCH  31  38
ATOM     38  O3  UNL     1      31.420  -8.494 -40.660  0.00  0.00    +0.000 OA
ATOM     39  H8  UNL     1      31.848  -7.669 -41.002  0.00  0.00    +0.000 HD
ENDBRANCH  31  38
BRANCH  35  40
ATOM     40  C15 UNL     1      28.455  -9.968 -36.982  0.00  0.00    +0.000 C 
BRANCH  40  41
ATOM     41  O12 UNL     1      28.396 -11.149 -37.735  0.00  0.00    +0.000 OA
ATOM     42  H26 UNL     1      27.464 -11.227 -38.070  0.00  0.00    +0.000 HD
ENDBRANCH  40  41
ENDBRANCH  35  40
BRANCH  33  43
ATOM     43  O5  UNL     1      31.514  -7.185 -36.012  0.00  0.00    +0.000 OA
BRANCH  43  44
ATOM     44  C8  UNL     1      31.648  -7.803 -34.740  0.00  0.00    +0.000 C 
ATOM     45  C9  UNL     1      30.253  -8.141 -34.182  0.00  0.00    +0.000 C 
ATOM     46  C10 UNL     1      30.389  -8.845 -32.820  0.00  0.00    +0.000 C 
ATOM     47  C11 UNL     1      31.645  -9.758 -32.782  0.00  0.00    +0.000 C 
ATOM     48  O9  UNL     1      32.007 -10.196 -34.080  0.00  0.00    +0.000 OA
ATOM     49  C12 UNL     1      32.457  -9.123 -34.910  0.00  0.00    +0.000 C 
BRANCH  47  50
ATOM     50  O8  UNL     1      31.449 -10.872 -31.947  0.00  0.00    +0.000 OA
ATOM     51  H18 UNL     1      30.565 -11.264 -32.182  0.00  0.00    +0.000 HD
ENDBRANCH  47  50
BRANCH  46  52
ATOM     52  O7  UNL     1      29.212  -9.575 -32.564  0.00  0.00    +0.000 OA
ATOM     53  H16 UNL     1      29.269 -10.418 -33.085  0.00  0.00    +0.000 HD
ENDBRANCH  46  52
BRANCH  45  54
ATOM     54  O6  UNL     1      29.491  -6.971 -34.016  0.00  0.00    +0.000 OA
ATOM     55  H14 UNL     1      29.172  -6.709 -34.919  0.00  0.00    +0.000 HD
ENDBRANCH  45  54
BRANCH  49  56
ATOM     56  C13 UNL     1      33.965  -8.889 -34.735  0.00  0.00    +0.000 C 
BRANCH  56  57
ATOM     57  O10 UNL     1      34.234  -7.510 -34.700  0.00  0.00    +0.000 OA
ATOM     58  H22 UNL     1      33.961  -7.177 -33.805  0.00  0.00    +0.000 HD
ENDBRANCH  56  57
ENDBRANCH  49  56
ENDBRANCH  43  44
ENDBRANCH  33  43
ENDBRANCH   1  30
TORSDOF 22
ENDMDL
MODEL 9
REMARK VINA RESULT:    -5.148      2.707      4.330
REMARK INTER + INTRA:         -12.242
REMARK INTER:                  -9.539
REMARK INTRA:                  -2.704
REMARK UNBOUND:                -2.430
REMARK  Name = resultss/4CJN/ligands/lig_358_t0.pdb
REMARK  23 active torsions:
REMARK  status: ('A' for Active; 'I' for Inactive)
REMARK    1  A    between atoms: C1_1  and  C2_2
REMARK    2  A    between atoms: C3_4  and  O2_5
REMARK    3  A    between atoms: O2_5  and  C4_6
REMARK    4  A    between atoms: C5_7  and  O3_8
REMARK    5  A    between atoms: C6_9  and  O4_10
REMARK    6  A    between atoms: C7_11  and  O5_12
REMARK    7  A    between atoms: O5_12  and  C8_13
REMARK    8  A    between atoms: C9_14  and  O6_15
REMARK    9  A    between atoms: C10_16  and  O7_17
REMARK   10  A    between atoms: C11_18  and  O8_19
REMARK   11  A    between atoms: C12_21  and  C13_22
REMARK   12  A    between atoms: C13_22  and  O10_23
REMARK   13  A    between atoms: C14_25  and  C15_26
REMARK   14  A    between atoms: C15_26  and  O12_27
REMARK   15  A    between atoms: C16_28  and  O13_29
REMARK   16  A    between atoms: C17_30  and  O14_31
REMARK   17  A    between atoms: C18_32  and  N1_33
REMARK   18  A    between atoms: N1_33  and  C19_34
REMARK   19  A    between atoms: C21_36  and  C22_37
REMARK   20  A    between atoms: C22_37  and  O15_38
REMARK   21  A    between atoms: C23_39  and  O16_40
REMARK   22  A    between atoms: C24_41  and  O17_42
REMARK   23  A    between atoms: C25_43  and  O18_44
REMARK                            x       y       z     vdW  Elec       q    Type
REMARK                         _______ _______ _______ _____ _____    ______ ____
ROOT
ATOM      1  O2  UNL     1      30.387  -9.765 -38.749  0.00  0.00    +0.000 OA
ENDROOT
BRANCH   1   5
ATOM      2  C1  UNL     1      31.312  -6.249 -36.404  0.00  0.00    +0.000 C 
ATOM      3  C2  UNL     1      30.741  -7.602 -35.942  0.00  0.00    +0.000 C 
ATOM      4  O1  UNL     1      30.121  -8.329 -36.992  0.00  0.00    +0.000 OA
ATOM      5  C3  UNL     1      31.011  -8.709 -38.033  0.00  0.00    +0.000 C 
ATOM      6  C16 UNL     1      32.391  -9.203 -37.509  0.00  0.00    +0.000 C 
ATOM      7  C17 UNL     1      32.310  -9.638 -36.035  0.00  0.00    +0.000 C 
ATOM      8  C18 UNL     1      31.760  -8.483 -35.152  0.00  0.00    +0.000 C 
BRANCH   8   9
ATOM      9  N1  UNL     1      31.093  -8.983 -33.926  0.00  0.00    +0.000 NA
ATOM     10  H32 UNL     1      31.672  -8.695 -33.102  0.00  0.00    +0.000 HD
BRANCH   9  11
ATOM     11  C19 UNL     1      29.710  -8.507 -33.706  0.00  0.00    +0.000 C 
ATOM     12  C20 UNL     1      28.682  -9.398 -34.371  0.00  0.00    +0.000 C 
ATOM     13  C21 UNL     1      27.375  -9.201 -34.117  0.00  0.00    +0.000 C 
ATOM     14  C23 UNL     1      26.999  -8.110 -33.121  0.00  0.00    +0.000 C 
ATOM     15  C24 UNL     1      27.880  -8.242 -31.853  0.00  0.00    +0.000 C 
ATOM     16  C25 UNL     1      29.404  -8.419 -32.182  0.00  0.00    +0.000 C 
BRANCH  16  17
ATOM     17  O18 UNL     1      29.921  -9.535 -31.496  0.00  0.00    +0.000 OA
ATOM     18  H43 UNL     1      30.788  -9.264 -31.095  0.00  0.00    +0.000 HD
ENDBRANCH  16  17
BRANCH  15  19
ATOM     19  O17 UNL     1      27.694  -7.107 -31.044  0.00  0.00    +0.000 OA
ATOM     20  H41 UNL     1      27.778  -7.411 -30.104  0.00  0.00    +0.000 HD
ENDBRANCH  15  19
BRANCH  14  21
ATOM     21  O16 UNL     1      25.639  -8.188 -32.779  0.00  0.00    +0.000 OA
ATOM     22  H39 UNL     1      25.248  -8.931 -33.309  0.00  0.00    +0.000 HD
ENDBRANCH  14  21
BRANCH  13  23
ATOM     23  C22 UNL     1      26.345 -10.096 -34.778  0.00  0.00    +0.000 C 
BRANCH  23  24
ATOM     24  O15 UNL     1      25.487  -9.335 -35.583  0.00  0.00    +0.000 OA
ATOM     25  H37 UNL     1      25.862  -8.414 -35.596  0.00  0.00    +0.000 HD
ENDBRANCH  23  24
ENDBRANCH  13  23
ENDBRANCH   9  11
ENDBRANCH   8   9
BRANCH   7  26
ATOM     26  O14 UNL     1      33.595  -9.994 -35.595  0.00  0.00    +0.000 OA
ATOM     27  H30 UNL     1      33.613  -9.874 -34.610  0.00  0.00    +0.000 HD
ENDBRANCH   7  26
BRANCH   6  28
ATOM     28  O13 UNL     1      32.923 -10.221 -38.323  0.00  0.00    +0.000 OA
ATOM     29  H28 UNL     1      32.987  -9.870 -39.248  0.00  0.00    +0.000 HD
ENDBRANCH   6  28
ENDBRANCH   1   5
BRANCH   1  30
ATOM     30  C4  UNL     1      29.652  -9.327 -39.881  0.00  0.00    +0.000 C 
ATOM     31  C5  UNL     1      30.267  -9.976 -41.134  0.00  0.00    +0.000 C 
ATOM     32  C6  UNL     1      29.484  -9.574 -42.402  0.00  0.00    +0.000 C 
ATOM     33  C7  UNL     1      27.980  -9.394 -42.083  0.00  0.00    +0.000 C 
ATOM     34  O11 UNL     1      27.598 -10.219 -40.993  0.00  0.00    +0.000 OA
ATOM     35  C14 UNL     1      28.162  -9.775 -39.760  0.00  0.00    +0.000 C 
BRANCH  32  36
ATOM     36  O4  UNL     1      29.664 -10.552 -43.396  0.00  0.00    +0.000 OA
ATOM     37  H10 UNL     1      30.642 -10.615 -43.561  0.00  0.00    +0.000 HD
ENDBRANCH  32  36
BRANCH  31  38
ATOM     38  O3  UNL     1      31.628  -9.649 -41.261  0.00  0.00    +0.000 OA
ATOM     39  H8  UNL     1      31.878  -9.775 -42.212  0.00  0.00    +0.000 HD
ENDBRANCH  31  38
BRANCH  35  40
ATOM     40  C15 UNL     1      27.276  -8.695 -39.105  0.00  0.00    +0.000 C 
BRANCH  40  41
ATOM     41  O12 UNL     1      27.460  -8.687 -37.715  0.00  0.00    +0.000 OA
ATOM     42  H26 UNL     1      27.214  -9.594 -37.391  0.00  0.00    +0.000 HD
ENDBRANCH  40  41
ENDBRANCH  35  40
BRANCH  33  43
ATOM     43  O5  UNL     1      27.215  -9.736 -43.224  0.00  0.00    +0.000 OA
BRANCH  43  44
ATOM     44  C8  UNL     1      26.046  -8.936 -43.334  0.00  0.00    +0.000 C 
ATOM     45  C9  UNL     1      25.140  -9.176 -42.113  0.00  0.00    +0.000 C 
ATOM     46  C10 UNL     1      23.887  -8.287 -42.206  0.00  0.00    +0.000 C 
ATOM     47  C11 UNL     1      24.218  -6.915 -42.854  0.00  0.00    +0.000 C 
ATOM     48  O9  UNL     1      25.578  -6.566 -42.663  0.00  0.00    +0.000 OA
ATOM     49  C12 UNL     1      26.467  -7.438 -43.364  0.00  0.00    +0.000 C 
BRANCH  47  50
ATOM     50  O8  UNL     1      23.395  -5.894 -42.352  0.00  0.00    +0.000 OA
ATOM     51  H18 UNL     1      22.453  -6.201 -42.446  0.00  0.00    +0.000 HD
ENDBRANCH  47  50
BRANCH  46  52
ATOM     52  O7  UNL     1      23.342  -8.130 -40.917  0.00  0.00    +0.000 OA
ATOM     53  H16 UNL     1      22.435  -8.533 -40.930  0.00  0.00    +0.000 HD
ENDBRANCH  46  52
BRANCH  45  54
ATOM     54  O6  UNL     1      24.739 -10.523 -42.052  0.00  0.00    +0.000 OA
ATOM     55  H14 UNL     1      24.696 -10.850 -42.988  0.00  0.00    +0.000 HD
ENDBRANCH  45  54
BRANCH  49  56
ATOM     56  C13 UNL     1      26.703  -6.944 -44.799  0.00  0.00    +0.000 C 
BRANCH  56  57
ATOM     57  O10 UNL     1      27.890  -7.497 -45.307  0.00  0.00    +0.000 OA
ATOM     58  H22 UNL     1      28.300  -8.037 -44.581  0.00  0.00    +0.000 HD
ENDBRANCH  56  57
ENDBRANCH  49  56
ENDBRANCH  43  44
ENDBRANCH  33  43
ENDBRANCH   1  30
TORSDOF 22
ENDMDL
