MODEL 1
REMARK VINA RESULT:    -6.857      0.000      0.000
REMARK INTER + INTRA:          -9.335
REMARK INTER:                  -8.661
REMARK INTRA:                  -0.674
REMARK UNBOUND:                -0.674
REMARK  Name = resultss/4CJN/ligands/lig_242_t1.pdb
REMARK  7 active torsions:
REMARK  status: ('A' for Active; 'I' for Inactive)
REMARK    1  A    between atoms: C1_1  and  C2_2
REMARK    2  A    between atoms: C2_2  and  C3_3
REMARK    3  A    between atoms: C2_2  and  C4_4
REMARK    4  A    between atoms: C8_9  and  N2_10
REMARK    5  A    between atoms: C11_15  and  C12_16
REMARK    6  A    between atoms: C15_19  and  N3_20
REMARK    7  A    between atoms: C20_28  and  O4_29
REMARK                            x       y       z     vdW  Elec       q    Type
REMARK                         _______ _______ _______ _____ _____    ______ ____
ROOT
ATOM      1  C4  UNL     1      23.948  -8.239 -34.911  0.00  0.00    +0.000 A 
ATOM      2  N1  UNL     1      25.156  -8.867 -34.839  0.00  0.00    +0.000 NA
ATOM      3  C5  UNL     1      25.926  -9.060 -35.940  0.00  0.00    +0.000 A 
ATOM      4  C6  UNL     1      27.158  -9.711 -35.844  0.00  0.00    +0.000 A 
ATOM      5  C7  UNL     1      27.939  -9.900 -36.988  0.00  0.00    +0.000 A 
ATOM      6  C8  UNL     1      27.494  -9.444 -38.243  0.00  0.00    +0.000 A 
ATOM      7  C18 UNL     1      26.255  -8.782 -38.331  0.00  0.00    +0.000 A 
ATOM      8  C19 UNL     1      25.474  -8.593 -37.187  0.00  0.00    +0.000 A 
ATOM      9  N4  UNL     1      24.279  -7.951 -37.263  0.00  0.00    +0.000 NA
ATOM     10  C20 UNL     1      23.507  -7.757 -36.159  0.00  0.00    +0.000 A 
ENDROOT
BRANCH   6  11
ATOM     11  N2  UNL     1      28.307  -9.625 -39.421  0.00  0.00    +0.000 N 
ATOM     12  C9  UNL     1      29.656  -9.176 -39.512  0.00  0.00    +0.000 C 
ATOM     13  O1  UNL     1      30.133  -8.327 -38.712  0.00  0.00    +0.000 OA
ATOM     14  C10 UNL     1      30.453  -9.722 -40.630  0.00  0.00    +0.000 C 
ATOM     15  S1  UNL     1      29.428 -11.003 -41.426  0.00  0.00    +0.000 S 
ATOM     16  C11 UNL     1      27.915 -10.502 -40.522  0.00  0.00    +0.000 C 
BRANCH  16  17
ATOM     17  C12 UNL     1      26.969  -9.808 -41.475  0.00  0.00    +0.000 A 
ATOM     18  C13 UNL     1      25.595 -10.091 -41.428  0.00  0.00    +0.000 A 
ATOM     19  C14 UNL     1      24.711  -9.462 -42.309  0.00  0.00    +0.000 A 
ATOM     20  C15 UNL     1      25.184  -8.544 -43.262  0.00  0.00    +0.000 A 
ATOM     21  C16 UNL     1      26.563  -8.271 -43.316  0.00  0.00    +0.000 A 
ATOM     22  C17 UNL     1      27.446  -8.900 -42.435  0.00  0.00    +0.000 A 
BRANCH  20  23
ATOM     23  N3  UNL     1      24.271  -7.898 -44.168  0.00  0.00    +0.000 N 
ATOM     24  O2  UNL     1      24.640  -7.561 -45.312  0.00  0.00    +0.000 OA
ATOM     25  O3  UNL     1      22.974  -7.638 -43.785  0.00  0.00    +0.000 OA
ENDBRANCH  20  23
ENDBRANCH  16  17
ENDBRANCH   6  11
BRANCH   1  27
ATOM     26  C1  UNL     1      23.398  -9.142 -32.632  0.00  0.00    +0.000 C 
ATOM     27  C2  UNL     1      23.146  -8.020 -33.646  0.00  0.00    +0.000 C 
ATOM     28  C3  UNL     1      23.486  -6.654 -33.041  0.00  0.00    +0.000 C 
ENDBRANCH   1  27
BRANCH  10  29
ATOM     29  O4  UNL     1      22.295  -7.082 -36.277  0.00  0.00    +0.000 OA
ATOM     30  H18 UNL     1      21.595  -7.138 -35.546  0.00  0.00    +0.000 HD
ENDBRANCH  10  29
TORSDOF 5
ENDMDL
MODEL 2
REMARK VINA RESULT:    -6.763      1.644      2.374
REMARK INTER + INTRA:          -9.217
REMARK INTER:                  -8.169
REMARK INTRA:                  -1.047
REMARK UNBOUND:                -0.674
REMARK  Name = resultss/4CJN/ligands/lig_242_t1.pdb
REMARK  7 active torsions:
REMARK  status: ('A' for Active; 'I' for Inactive)
REMARK    1  A    between atoms: C1_1  and  C2_2
REMARK    2  A    between atoms: C2_2  and  C3_3
REMARK    3  A    between atoms: C2_2  and  C4_4
REMARK    4  A    between atoms: C8_9  and  N2_10
REMARK    5  A    between atoms: C11_15  and  C12_16
REMARK    6  A    between atoms: C15_19  and  N3_20
REMARK    7  A    between atoms: C20_28  and  O4_29
REMARK                            x       y       z     vdW  Elec       q    Type
REMARK                         _______ _______ _______ _____ _____    ______ ____
ROOT
ATOM      1  C4  UNL     1      25.162  -8.400 -35.019  0.00  0.00    +0.000 A 
ATOM      2  N1  UNL     1      25.489  -7.545 -36.029  0.00  0.00    +0.000 NA
ATOM      3  C5  UNL     1      26.328  -7.912 -37.031  0.00  0.00    +0.000 A 
ATOM      4  C6  UNL     1      26.654  -7.018 -38.053  0.00  0.00    +0.000 A 
ATOM      5  C7  UNL     1      27.519  -7.412 -39.078  0.00  0.00    +0.000 A 
ATOM      6  C8  UNL     1      28.073  -8.706 -39.089  0.00  0.00    +0.000 A 
ATOM      7  C18 UNL     1      27.734  -9.605 -38.060  0.00  0.00    +0.000 A 
ATOM      8  C19 UNL     1      26.869  -9.210 -37.035  0.00  0.00    +0.000 A 
ATOM      9  N4  UNL     1      26.533 -10.074 -36.042  0.00  0.00    +0.000 NA
ATOM     10  C20 UNL     1      25.691  -9.706 -35.038  0.00  0.00    +0.000 A 
ENDROOT
BRANCH   6  11
ATOM     11  N2  UNL     1      28.953  -9.119 -40.155  0.00  0.00    +0.000 N 
ATOM     12  C9  UNL     1      30.364  -8.926 -40.118  0.00  0.00    +0.000 C 
ATOM     13  O1  UNL     1      30.907  -8.116 -39.319  0.00  0.00    +0.000 OA
ATOM     14  C10 UNL     1      31.155  -9.689 -41.106  0.00  0.00    +0.000 C 
ATOM     15  S1  UNL     1      29.996 -10.823 -41.939  0.00  0.00    +0.000 S 
ATOM     16  C11 UNL     1      28.519  -9.993 -41.242  0.00  0.00    +0.000 C 
BRANCH  16  17
ATOM     17  C12 UNL     1      27.819  -9.217 -42.334  0.00  0.00    +0.000 A 
ATOM     18  C13 UNL     1      28.572  -8.487 -43.266  0.00  0.00    +0.000 A 
ATOM     19  C14 UNL     1      27.937  -7.759 -44.277  0.00  0.00    +0.000 A 
ATOM     20  C15 UNL     1      26.535  -7.738 -44.369  0.00  0.00    +0.000 A 
ATOM     21  C16 UNL     1      25.781  -8.461 -43.426  0.00  0.00    +0.000 A 
ATOM     22  C17 UNL     1      26.416  -9.188 -42.417  0.00  0.00    +0.000 A 
BRANCH  20  23
ATOM     23  N3  UNL     1      25.884  -6.988 -45.411  0.00  0.00    +0.000 N 
ATOM     24  O2  UNL     1      26.434  -5.988 -45.916  0.00  0.00    +0.000 OA
ATOM     25  O3  UNL     1      24.639  -7.361 -45.866  0.00  0.00    +0.000 OA
ENDBRANCH  20  23
ENDBRANCH  16  17
ENDBRANCH   6  11
BRANCH   1  27
ATOM     26  C1  UNL     1      24.408  -6.473 -33.596  0.00  0.00    +0.000 C 
ATOM     27  C2  UNL     1      24.195  -7.951 -33.946  0.00  0.00    +0.000 C 
ATOM     28  C3  UNL     1      22.754  -8.199 -34.403  0.00  0.00    +0.000 C 
ENDBRANCH   1  27
BRANCH  10  29
ATOM     29  O4  UNL     1      25.362 -10.626 -34.045  0.00  0.00    +0.000 OA
ATOM     30  H18 UNL     1      25.869 -11.499 -33.957  0.00  0.00    +0.000 HD
ENDBRANCH  10  29
TORSDOF 5
ENDMDL
MODEL 3
REMARK VINA RESULT:    -6.317      3.532      8.899
REMARK INTER + INTRA:          -8.654
REMARK INTER:                  -7.620
REMARK INTRA:                  -1.033
REMARK UNBOUND:                -0.674
REMARK  Name = resultss/4CJN/ligands/lig_242_t1.pdb
REMARK  7 active torsions:
REMARK  status: ('A' for Active; 'I' for Inactive)
REMARK    1  A    between atoms: C1_1  and  C2_2
REMARK    2  A    between atoms: C2_2  and  C3_3
REMARK    3  A    between atoms: C2_2  and  C4_4
REMARK    4  A    between atoms: C8_9  and  N2_10
REMARK    5  A    between atoms: C11_15  and  C12_16
REMARK    6  A    between atoms: C15_19  and  N3_20
REMARK    7  A    between atoms: C20_28  and  O4_29
REMARK                            x       y       z     vdW  Elec       q    Type
REMARK                         _______ _______ _______ _____ _____    ______ ____
ROOT
ATOM      1  C4  UNL     1      31.250 -10.780 -41.897  0.00  0.00    +0.000 A 
ATOM      2  N1  UNL     1      29.918 -11.061 -41.840  0.00  0.00    +0.000 NA
ATOM      3  C5  UNL     1      29.088 -10.410 -40.984  0.00  0.00    +0.000 A 
ATOM      4  C6  UNL     1      27.726 -10.718 -40.938  0.00  0.00    +0.000 A 
ATOM      5  C7  UNL     1      26.886 -10.037 -40.052  0.00  0.00    +0.000 A 
ATOM      6  C8  UNL     1      27.399  -9.044 -39.198  0.00  0.00    +0.000 A 
ATOM      7  C18 UNL     1      28.771  -8.733 -39.256  0.00  0.00    +0.000 A 
ATOM      8  C19 UNL     1      29.611  -9.414 -40.142  0.00  0.00    +0.000 A 
ATOM      9  N4  UNL     1      30.935  -9.116 -40.207  0.00  0.00    +0.000 NA
ATOM     10  C20 UNL     1      31.767  -9.768 -41.065  0.00  0.00    +0.000 A 
ENDROOT
BRANCH   6  11
ATOM     11  N2  UNL     1      26.529  -8.330 -38.295  0.00  0.00    +0.000 N 
ATOM     12  C9  UNL     1      25.940  -7.073 -38.613  0.00  0.00    +0.000 C 
ATOM     13  O1  UNL     1      26.370  -6.351 -39.552  0.00  0.00    +0.000 OA
ATOM     14  C10 UNL     1      24.825  -6.635 -37.746  0.00  0.00    +0.000 C 
ATOM     15  S1  UNL     1      24.448  -8.030 -36.635  0.00  0.00    +0.000 S 
ATOM     16  C11 UNL     1      25.972  -8.941 -37.091  0.00  0.00    +0.000 C 
BRANCH  16  17
ATOM     17  C12 UNL     1      26.949  -8.889 -35.938  0.00  0.00    +0.000 A 
ATOM     18  C13 UNL     1      27.847  -9.948 -35.733  0.00  0.00    +0.000 A 
ATOM     19  C14 UNL     1      28.749  -9.915 -34.667  0.00  0.00    +0.000 A 
ATOM     20  C15 UNL     1      28.766  -8.828 -33.777  0.00  0.00    +0.000 A 
ATOM     21  C16 UNL     1      27.857  -7.773 -33.976  0.00  0.00    +0.000 A 
ATOM     22  C17 UNL     1      26.955  -7.805 -35.042  0.00  0.00    +0.000 A 
BRANCH  20  23
ATOM     23  N3  UNL     1      29.697  -8.797 -32.680  0.00  0.00    +0.000 N 
ATOM     24  O2  UNL     1      29.976  -7.722 -32.110  0.00  0.00    +0.000 OA
ATOM     25  O3  UNL     1      30.298  -9.955 -32.242  0.00  0.00    +0.000 OA
ENDBRANCH  20  23
ENDBRANCH  16  17
ENDBRANCH   6  11
BRANCH   1  27
ATOM     26  C1  UNL     1      31.605 -12.933 -43.141  0.00  0.00    +0.000 C 
ATOM     27  C2  UNL     1      32.123 -11.511 -42.894  0.00  0.00    +0.000 C 
ATOM     28  C3  UNL     1      32.193 -10.723 -44.206  0.00  0.00    +0.000 C 
ENDBRANCH   1  27
BRANCH  10  29
ATOM     29  O4  UNL     1      33.115  -9.423 -41.110  0.00  0.00    +0.000 OA
ATOM     30  H18 UNL     1      33.425  -8.496 -40.843  0.00  0.00    +0.000 HD
ENDBRANCH  10  29
TORSDOF 5
ENDMDL
MODEL 4
REMARK VINA RESULT:    -6.247      3.283      8.397
REMARK INTER + INTRA:          -8.564
REMARK INTER:                  -7.561
REMARK INTRA:                  -1.003
REMARK UNBOUND:                -0.674
REMARK  Name = resultss/4CJN/ligands/lig_242_t1.pdb
REMARK  7 active torsions:
REMARK  status: ('A' for Active; 'I' for Inactive)
REMARK    1  A    between atoms: C1_1  and  C2_2
REMARK    2  A    between atoms: C2_2  and  C3_3
REMARK    3  A    between atoms: C2_2  and  C4_4
REMARK    4  A    between atoms: C8_9  and  N2_10
REMARK    5  A    between atoms: C11_15  and  C12_16
REMARK    6  A    between atoms: C15_19  and  N3_20
REMARK    7  A    between atoms: C20_28  and  O4_29
REMARK                            x       y       z     vdW  Elec       q    Type
REMARK                         _______ _______ _______ _____ _____    ______ ____
ROOT
ATOM      1  C4  UNL     1      25.859  -8.306 -42.125  0.00  0.00    +0.000 A 
ATOM      2  N1  UNL     1      26.543  -7.561 -41.212  0.00  0.00    +0.000 NA
ATOM      3  C5  UNL     1      26.280  -7.644 -39.883  0.00  0.00    +0.000 A 
ATOM      4  C6  UNL     1      26.990  -6.867 -38.965  0.00  0.00    +0.000 A 
ATOM      5  C7  UNL     1      26.707  -6.965 -37.599  0.00  0.00    +0.000 A 
ATOM      6  C8  UNL     1      25.706  -7.839 -37.136  0.00  0.00    +0.000 A 
ATOM      7  C18 UNL     1      25.000  -8.625 -38.067  0.00  0.00    +0.000 A 
ATOM      8  C19 UNL     1      25.283  -8.527 -39.432  0.00  0.00    +0.000 A 
ATOM      9  N4  UNL     1      24.609  -9.286 -40.335  0.00  0.00    +0.000 NA
ATOM     10  C20 UNL     1      24.874  -9.204 -41.668  0.00  0.00    +0.000 A 
ENDROOT
BRANCH   6  11
ATOM     11  N2  UNL     1      25.424  -7.952 -35.726  0.00  0.00    +0.000 N 
ATOM     12  C9  UNL     1      24.609  -7.022 -35.019  0.00  0.00    +0.000 C 
ATOM     13  O1  UNL     1      24.337  -5.883 -35.483  0.00  0.00    +0.000 OA
ATOM     14  C10 UNL     1      24.142  -7.447 -33.682  0.00  0.00    +0.000 C 
ATOM     15  S1  UNL     1      24.638  -9.190 -33.485  0.00  0.00    +0.000 S 
ATOM     16  C11 UNL     1      25.730  -9.155 -34.956  0.00  0.00    +0.000 C 
BRANCH  16  17
ATOM     17  C12 UNL     1      27.173  -9.176 -34.507  0.00  0.00    +0.000 A 
ATOM     18  C13 UNL     1      28.118  -9.928 -35.222  0.00  0.00    +0.000 A 
ATOM     19  C14 UNL     1      29.454  -9.961 -34.813  0.00  0.00    +0.000 A 
ATOM     20  C15 UNL     1      29.871  -9.251 -33.675  0.00  0.00    +0.000 A 
ATOM     21  C16 UNL     1      28.921  -8.507 -32.952  0.00  0.00    +0.000 A 
ATOM     22  C17 UNL     1      27.585  -8.474 -33.361  0.00  0.00    +0.000 A 
BRANCH  20  23
ATOM     23  N3  UNL     1      31.248  -9.287 -33.256  0.00  0.00    +0.000 N 
ATOM     24  O2  UNL     1      31.937 -10.315 -33.418  0.00  0.00    +0.000 OA
ATOM     25  O3  UNL     1      31.828  -8.186 -32.668  0.00  0.00    +0.000 OA
ENDBRANCH  20  23
ENDBRANCH  16  17
ENDBRANCH   6  11
BRANCH   1  27
ATOM     26  C1  UNL     1      25.301  -7.204 -44.312  0.00  0.00    +0.000 C 
ATOM     27  C2  UNL     1      26.217  -8.201 -43.592  0.00  0.00    +0.000 C 
ATOM     28  C3  UNL     1      27.687  -7.796 -43.744  0.00  0.00    +0.000 C 
ENDBRANCH   1  27
BRANCH  10  29
ATOM     29  O4  UNL     1      24.169 -10.008 -42.559  0.00  0.00    +0.000 OA
ATOM     30  H18 UNL     1      24.392 -10.992 -42.659  0.00  0.00    +0.000 HD
ENDBRANCH  10  29
TORSDOF 5
ENDMDL
MODEL 5
REMARK VINA RESULT:    -6.030      2.774      7.364
REMARK INTER + INTRA:          -8.290
REMARK INTER:                  -7.259
REMARK INTRA:                  -1.031
REMARK UNBOUND:                -0.674
REMARK  Name = resultss/4CJN/ligands/lig_242_t1.pdb
REMARK  7 active torsions:
REMARK  status: ('A' for Active; 'I' for Inactive)
REMARK    1  A    between atoms: C1_1  and  C2_2
REMARK    2  A    between atoms: C2_2  and  C3_3
REMARK    3  A    between atoms: C2_2  and  C4_4
REMARK    4  A    between atoms: C8_9  and  N2_10
REMARK    5  A    between atoms: C11_15  and  C12_16
REMARK    6  A    between atoms: C15_19  and  N3_20
REMARK    7  A    between atoms: C20_28  and  O4_29
REMARK                            x       y       z     vdW  Elec       q    Type
REMARK                         _______ _______ _______ _____ _____    ______ ____
ROOT
ATOM      1  C4  UNL     1      24.870  -8.088 -43.710  0.00  0.00    +0.000 A 
ATOM      2  N1  UNL     1      26.018  -7.361 -43.599  0.00  0.00    +0.000 NA
ATOM      3  C5  UNL     1      26.951  -7.640 -42.653  0.00  0.00    +0.000 A 
ATOM      4  C6  UNL     1      28.117  -6.878 -42.554  0.00  0.00    +0.000 A 
ATOM      5  C7  UNL     1      29.068  -7.179 -41.575  0.00  0.00    +0.000 A 
ATOM      6  C8  UNL     1      28.861  -8.245 -40.679  0.00  0.00    +0.000 A 
ATOM      7  C18 UNL     1      27.687  -9.014 -40.790  0.00  0.00    +0.000 A 
ATOM      8  C19 UNL     1      26.736  -8.712 -41.769  0.00  0.00    +0.000 A 
ATOM      9  N4  UNL     1      25.603  -9.453 -41.886  0.00  0.00    +0.000 NA
ATOM     10  C20 UNL     1      24.668  -9.174 -42.834  0.00  0.00    +0.000 A 
ENDROOT
BRANCH   6  11
ATOM     11  N2  UNL     1      29.849  -8.566 -39.678  0.00  0.00    +0.000 N 
ATOM     12  C9  UNL     1      30.915  -9.483 -39.905  0.00  0.00    +0.000 C 
ATOM     13  O1  UNL     1      30.899 -10.305 -40.860  0.00  0.00    +0.000 OA
ATOM     14  C10 UNL     1      32.022  -9.455 -38.925  0.00  0.00    +0.000 C 
ATOM     15  S1  UNL     1      31.706  -8.038 -37.823  0.00  0.00    +0.000 S 
ATOM     16  C11 UNL     1      29.999  -7.799 -38.445  0.00  0.00    +0.000 C 
BRANCH  16  17
ATOM     17  C12 UNL     1      29.015  -8.247 -37.388  0.00  0.00    +0.000 A 
ATOM     18  C13 UNL     1      28.023  -7.364 -36.936  0.00  0.00    +0.000 A 
ATOM     19  C14 UNL     1      27.112  -7.763 -35.954  0.00  0.00    +0.000 A 
ATOM     20  C15 UNL     1      27.180  -9.052 -35.397  0.00  0.00    +0.000 A 
ATOM     21  C16 UNL     1      28.183  -9.932 -35.843  0.00  0.00    +0.000 A 
ATOM     22  C17 UNL     1      29.094  -9.532 -36.824  0.00  0.00    +0.000 A 
BRANCH  20  23
ATOM     23  N3  UNL     1      26.241  -9.460 -34.387  0.00  0.00    +0.000 N 
ATOM     24  O2  UNL     1      25.838 -10.640 -34.330  0.00  0.00    +0.000 OA
ATOM     25  O3  UNL     1      25.767  -8.553 -33.465  0.00  0.00    +0.000 OA
ENDBRANCH  20  23
ENDBRANCH  16  17
ENDBRANCH   6  11
BRANCH   1  27
ATOM     26  C1  UNL     1      22.775  -6.828 -44.286  0.00  0.00    +0.000 C 
ATOM     27  C2  UNL     1      23.880  -7.756 -44.805  0.00  0.00    +0.000 C 
ATOM     28  C3  UNL     1      24.608  -7.121 -45.994  0.00  0.00    +0.000 C 
ENDBRANCH   1  27
BRANCH  10  29
ATOM     29  O4  UNL     1      23.526  -9.965 -42.929  0.00  0.00    +0.000 OA
ATOM     30  H18 UNL     1      23.422 -10.797 -42.359  0.00  0.00    +0.000 HD
ENDBRANCH  10  29
TORSDOF 5
ENDMDL
MODEL 6
REMARK VINA RESULT:    -6.012      2.809      4.897
REMARK INTER + INTRA:          -8.267
REMARK INTER:                  -7.920
REMARK INTRA:                  -0.348
REMARK UNBOUND:                -0.674
REMARK  Name = resultss/4CJN/ligands/lig_242_t1.pdb
REMARK  7 active torsions:
REMARK  status: ('A' for Active; 'I' for Inactive)
REMARK    1  A    between atoms: C1_1  and  C2_2
REMARK    2  A    between atoms: C2_2  and  C3_3
REMARK    3  A    between atoms: C2_2  and  C4_4
REMARK    4  A    between atoms: C8_9  and  N2_10
REMARK    5  A    between atoms: C11_15  and  C12_16
REMARK    6  A    between atoms: C15_19  and  N3_20
REMARK    7  A    between atoms: C20_28  and  O4_29
REMARK                            x       y       z     vdW  Elec       q    Type
REMARK                         _______ _______ _______ _____ _____    ______ ____
ROOT
ATOM      1  C4  UNL     1      25.864  -8.975 -35.167  0.00  0.00    +0.000 A 
ATOM      2  N1  UNL     1      26.689  -9.783 -35.892  0.00  0.00    +0.000 NA
ATOM      3  C5  UNL     1      26.853  -9.619 -37.230  0.00  0.00    +0.000 A 
ATOM      4  C6  UNL     1      27.698 -10.463 -37.954  0.00  0.00    +0.000 A 
ATOM      5  C7  UNL     1      27.857 -10.279 -39.330  0.00  0.00    +0.000 A 
ATOM      6  C8  UNL     1      27.167  -9.252 -40.001  0.00  0.00    +0.000 A 
ATOM      7  C18 UNL     1      26.322  -8.401 -39.263  0.00  0.00    +0.000 A 
ATOM      8  C19 UNL     1      26.163  -8.585 -37.886  0.00  0.00    +0.000 A 
ATOM      9  N4  UNL     1      25.354  -7.764 -37.167  0.00  0.00    +0.000 NA
ATOM     10  C20 UNL     1      25.190  -7.928 -35.826  0.00  0.00    +0.000 A 
ENDROOT
BRANCH   6  11
ATOM     11  N2  UNL     1      27.342  -9.053 -41.419  0.00  0.00    +0.000 N 
ATOM     12  C9  UNL     1      26.326  -9.339 -42.376  0.00  0.00    +0.000 C 
ATOM     13  O1  UNL     1      25.335 -10.068 -42.102  0.00  0.00    +0.000 OA
ATOM     14  C10 UNL     1      26.525  -8.776 -43.728  0.00  0.00    +0.000 C 
ATOM     15  S1  UNL     1      27.984  -7.687 -43.631  0.00  0.00    +0.000 S 
ATOM     16  C11 UNL     1      28.467  -8.307 -41.976  0.00  0.00    +0.000 C 
BRANCH  16  17
ATOM     17  C12 UNL     1      29.698  -9.173 -42.107  0.00  0.00    +0.000 A 
ATOM     18  C13 UNL     1      30.737  -9.060 -41.169  0.00  0.00    +0.000 A 
ATOM     19  C14 UNL     1      31.884  -9.851 -41.283  0.00  0.00    +0.000 A 
ATOM     20  C15 UNL     1      32.021 -10.763 -42.343  0.00  0.00    +0.000 A 
ATOM     21  C16 UNL     1      30.985 -10.866 -43.289  0.00  0.00    +0.000 A 
ATOM     22  C17 UNL     1      29.838 -10.076 -43.175  0.00  0.00    +0.000 A 
BRANCH  20  23
ATOM     23  N3  UNL     1      33.203 -11.576 -42.458  0.00  0.00    +0.000 N 
ATOM     24  O2  UNL     1      34.320 -11.128 -42.125  0.00  0.00    +0.000 OA
ATOM     25  O3  UNL     1      33.122 -12.863 -42.940  0.00  0.00    +0.000 OA
ENDBRANCH  20  23
ENDBRANCH  16  17
ENDBRANCH   6  11
BRANCH   1  27
ATOM     26  C1  UNL     1      26.512  -8.097 -32.905  0.00  0.00    +0.000 C 
ATOM     27  C2  UNL     1      25.745  -9.180 -33.673  0.00  0.00    +0.000 C 
ATOM     28  C3  UNL     1      24.269  -9.195 -33.262  0.00  0.00    +0.000 C 
ENDBRANCH   1  27
BRANCH  10  29
ATOM     29  O4  UNL     1      24.361  -7.057 -35.123  0.00  0.00    +0.000 OA
ATOM     30  H18 UNL     1      24.744  -6.411 -34.442  0.00  0.00    +0.000 HD
ENDBRANCH  10  29
TORSDOF 5
ENDMDL
MODEL 7
REMARK VINA RESULT:    -6.007      5.249      8.306
REMARK INTER + INTRA:          -8.261
REMARK INTER:                  -7.746
REMARK INTRA:                  -0.515
REMARK UNBOUND:                -0.674
REMARK  Name = resultss/4CJN/ligands/lig_242_t1.pdb
REMARK  7 active torsions:
REMARK  status: ('A' for Active; 'I' for Inactive)
REMARK    1  A    between atoms: C1_1  and  C2_2
REMARK    2  A    between atoms: C2_2  and  C3_3
REMARK    3  A    between atoms: C2_2  and  C4_4
REMARK    4  A    between atoms: C8_9  and  N2_10
REMARK    5  A    between atoms: C11_15  and  C12_16
REMARK    6  A    between atoms: C15_19  and  N3_20
REMARK    7  A    between atoms: C20_28  and  O4_29
REMARK                            x       y       z     vdW  Elec       q    Type
REMARK                         _______ _______ _______ _____ _____    ______ ____
ROOT
ATOM      1  C4  UNL     1      24.280  -7.044 -45.833  0.00  0.00    +0.000 A 
ATOM      2  N1  UNL     1      25.629  -6.987 -46.024  0.00  0.00    +0.000 NA
ATOM      3  C5  UNL     1      26.503  -7.364 -45.056  0.00  0.00    +0.000 A 
ATOM      4  C6  UNL     1      27.881  -7.292 -45.272  0.00  0.00    +0.000 A 
ATOM      5  C7  UNL     1      28.767  -7.686 -44.265  0.00  0.00    +0.000 A 
ATOM      6  C8  UNL     1      28.285  -8.152 -43.028  0.00  0.00    +0.000 A 
ATOM      7  C18 UNL     1      26.895  -8.230 -42.821  0.00  0.00    +0.000 A 
ATOM      8  C19 UNL     1      26.008  -7.836 -43.827  0.00  0.00    +0.000 A 
ATOM      9  N4  UNL     1      24.666  -7.913 -43.637  0.00  0.00    +0.000 NA
ATOM     10  C20 UNL     1      23.789  -7.535 -44.607  0.00  0.00    +0.000 A 
ENDROOT
BRANCH   6  11
ATOM     11  N2  UNL     1      29.199  -8.573 -41.995  0.00  0.00    +0.000 N 
ATOM     12  C9  UNL     1      29.826  -7.665 -41.093  0.00  0.00    +0.000 C 
ATOM     13  O1  UNL     1      29.880  -6.427 -41.321  0.00  0.00    +0.000 OA
ATOM     14  C10 UNL     1      30.458  -8.263 -39.898  0.00  0.00    +0.000 C 
ATOM     15  S1  UNL     1      30.013 -10.031 -39.900  0.00  0.00    +0.000 S 
ATOM     16  C11 UNL     1      29.367  -9.973 -41.614  0.00  0.00    +0.000 C 
BRANCH  16  17
ATOM     17  C12 UNL     1      30.328 -10.689 -42.535  0.00  0.00    +0.000 A 
ATOM     18  C13 UNL     1      30.496 -12.078 -42.430  0.00  0.00    +0.000 A 
ATOM     19  C14 UNL     1      31.387 -12.750 -43.271  0.00  0.00    +0.000 A 
ATOM     20  C15 UNL     1      32.137 -12.046 -44.227  0.00  0.00    +0.000 A 
ATOM     21  C16 UNL     1      31.978 -10.651 -44.323  0.00  0.00    +0.000 A 
ATOM     22  C17 UNL     1      31.087  -9.979 -43.483  0.00  0.00    +0.000 A 
BRANCH  20  23
ATOM     23  N3  UNL     1      33.054 -12.741 -45.092  0.00  0.00    +0.000 N 
ATOM     24  O2  UNL     1      32.873 -12.764 -46.327  0.00  0.00    +0.000 OA
ATOM     25  O3  UNL     1      34.147 -13.395 -44.570  0.00  0.00    +0.000 OA
ENDBRANCH  20  23
ENDBRANCH  16  17
ENDBRANCH   6  11
BRANCH   1  27
ATOM     26  C1  UNL     1      24.107  -5.883 -48.053  0.00  0.00    +0.000 C 
ATOM     27  C2  UNL     1      23.350  -6.644 -46.958  0.00  0.00    +0.000 C 
ATOM     28  C3  UNL     1      22.662  -7.885 -47.535  0.00  0.00    +0.000 C 
ENDBRANCH   1  27
BRANCH  10  29
ATOM     29  O4  UNL     1      22.420  -7.641 -44.376  0.00  0.00    +0.000 OA
ATOM     30  H18 UNL     1      21.770  -6.984 -44.791  0.00  0.00    +0.000 HD
ENDBRANCH  10  29
TORSDOF 5
ENDMDL
MODEL 8
REMARK VINA RESULT:    -5.945      2.601      7.457
REMARK INTER + INTRA:          -8.183
REMARK INTER:                  -7.245
REMARK INTRA:                  -0.938
REMARK UNBOUND:                -0.674
REMARK  Name = resultss/4CJN/ligands/lig_242_t1.pdb
REMARK  7 active torsions:
REMARK  status: ('A' for Active; 'I' for Inactive)
REMARK    1  A    between atoms: C1_1  and  C2_2
REMARK    2  A    between atoms: C2_2  and  C3_3
REMARK    3  A    between atoms: C2_2  and  C4_4
REMARK    4  A    between atoms: C8_9  and  N2_10
REMARK    5  A    between atoms: C11_15  and  C12_16
REMARK    6  A    between atoms: C15_19  and  N3_20
REMARK    7  A    between atoms: C20_28  and  O4_29
REMARK                            x       y       z     vdW  Elec       q    Type
REMARK                         _______ _______ _______ _____ _____    ______ ____
ROOT
ATOM      1  C4  UNL     1      25.235  -8.123 -42.769  0.00  0.00    +0.000 A 
ATOM      2  N1  UNL     1      26.184  -7.318 -42.214  0.00  0.00    +0.000 NA
ATOM      3  C5  UNL     1      26.731  -7.591 -41.002  0.00  0.00    +0.000 A 
ATOM      4  C6  UNL     1      27.698  -6.749 -40.449  0.00  0.00    +0.000 A 
ATOM      5  C7  UNL     1      28.252  -7.045 -39.200  0.00  0.00    +0.000 A 
ATOM      6  C8  UNL     1      27.840  -8.185 -38.486  0.00  0.00    +0.000 A 
ATOM      7  C18 UNL     1      26.870  -9.034 -39.053  0.00  0.00    +0.000 A 
ATOM      8  C19 UNL     1      26.316  -8.738 -40.302  0.00  0.00    +0.000 A 
ATOM      9  N4  UNL     1      25.384  -9.555 -40.857  0.00  0.00    +0.000 NA
ATOM     10  C20 UNL     1      24.836  -9.282 -42.073  0.00  0.00    +0.000 A 
ENDROOT
BRANCH   6  11
ATOM     11  N2  UNL     1      28.422  -8.500 -37.204  0.00  0.00    +0.000 N 
ATOM     12  C9  UNL     1      29.440  -9.482 -37.032  0.00  0.00    +0.000 C 
ATOM     13  O1  UNL     1      29.681 -10.355 -37.908  0.00  0.00    +0.000 OA
ATOM     14  C10 UNL     1      30.163  -9.455 -35.743  0.00  0.00    +0.000 C 
ATOM     15  S1  UNL     1      29.601  -7.963 -34.860  0.00  0.00    +0.000 S 
ATOM     16  C11 UNL     1      28.212  -7.673 -36.019  0.00  0.00    +0.000 C 
BRANCH  16  17
ATOM     17  C12 UNL     1      26.908  -8.009 -35.331  0.00  0.00    +0.000 A 
ATOM     18  C13 UNL     1      25.923  -7.021 -35.176  0.00  0.00    +0.000 A 
ATOM     19  C14 UNL     1      24.717  -7.317 -34.536  0.00  0.00    +0.000 A 
ATOM     20  C15 UNL     1      24.474  -8.605 -34.027  0.00  0.00    +0.000 A 
ATOM     21  C16 UNL     1      25.468  -9.590 -34.172  0.00  0.00    +0.000 A 
ATOM     22  C17 UNL     1      26.673  -9.294 -34.813  0.00  0.00    +0.000 A 
BRANCH  20  23
ATOM     23  N3  UNL     1      23.231  -8.906 -33.368  0.00  0.00    +0.000 N 
ATOM     24  O2  UNL     1      22.175  -9.025 -34.023  0.00  0.00    +0.000 OA
ATOM     25  O3  UNL     1      23.186  -9.067 -32.002  0.00  0.00    +0.000 OA
ENDBRANCH  20  23
ENDBRANCH  16  17
ENDBRANCH   6  11
BRANCH   1  27
ATOM     26  C1  UNL     1      23.415  -6.937 -44.030  0.00  0.00    +0.000 C 
ATOM     27  C2  UNL     1      24.684  -7.791 -44.139  0.00  0.00    +0.000 C 
ATOM     28  C3  UNL     1      25.751  -7.074 -44.973  0.00  0.00    +0.000 C 
ENDBRANCH   1  27
BRANCH  10  29
ATOM     29  O4  UNL     1      23.893 -10.151 -42.613  0.00  0.00    +0.000 OA
ATOM     30  H18 UNL     1      22.914  -9.891 -42.664  0.00  0.00    +0.000 HD
ENDBRANCH  10  29
TORSDOF 5
ENDMDL
MODEL 9
REMARK VINA RESULT:    -5.923      3.550      7.870
REMARK INTER + INTRA:          -8.155
REMARK INTER:                  -7.134
REMARK INTRA:                  -1.022
REMARK UNBOUND:                -0.674
REMARK  Name = resultss/4CJN/ligands/lig_242_t1.pdb
REMARK  7 active torsions:
REMARK  status: ('A' for Active; 'I' for Inactive)
REMARK    1  A    between atoms: C1_1  and  C2_2
REMARK    2  A    between atoms: C2_2  and  C3_3
REMARK    3  A    between atoms: C2_2  and  C4_4
REMARK    4  A    between atoms: C8_9  and  N2_10
REMARK    5  A    between atoms: C11_15  and  C12_16
REMARK    6  A    between atoms: C15_19  and  N3_20
REMARK    7  A    between atoms: C20_28  and  O4_29
REMARK                            x       y       z     vdW  Elec       q    Type
REMARK                         _______ _______ _______ _____ _____    ______ ____
ROOT
ATOM      1  C4  UNL     1      29.128 -10.322 -40.699  0.00  0.00    +0.000 A 
ATOM      2  N1  UNL     1      30.039  -9.681 -39.913  0.00  0.00    +0.000 NA
ATOM      3  C5  UNL     1      29.794  -9.422 -38.603  0.00  0.00    +0.000 A 
ATOM      4  C6  UNL     1      30.739  -8.758 -37.818  0.00  0.00    +0.000 A 
ATOM      5  C7  UNL     1      30.471  -8.500 -36.470  0.00  0.00    +0.000 A 
ATOM      6  C8  UNL     1      29.251  -8.899 -35.893  0.00  0.00    +0.000 A 
ATOM      7  C18 UNL     1      28.306  -9.574 -36.689  0.00  0.00    +0.000 A 
ATOM      8  C19 UNL     1      28.574  -9.832 -38.036  0.00  0.00    +0.000 A 
ATOM      9  N4  UNL     1      27.669 -10.488 -38.809  0.00  0.00    +0.000 NA
ATOM     10  C20 UNL     1      27.915 -10.749 -40.122  0.00  0.00    +0.000 A 
ENDROOT
BRANCH   6  11
ATOM     11  N2  UNL     1      28.980  -8.647 -34.499  0.00  0.00    +0.000 N 
ATOM     12  C9  UNL     1      29.586  -9.387 -33.443  0.00  0.00    +0.000 C 
ATOM     13  O1  UNL     1      30.146 -10.499 -33.641  0.00  0.00    +0.000 OA
ATOM     14  C10 UNL     1      29.475  -8.804 -32.089  0.00  0.00    +0.000 C 
ATOM     15  S1  UNL     1      28.733  -7.151 -32.291  0.00  0.00    +0.000 S 
ATOM     16  C11 UNL     1      28.269  -7.458 -34.036  0.00  0.00    +0.000 C 
BRANCH  16  17
ATOM     17  C12 UNL     1      26.771  -7.634 -34.132  0.00  0.00    +0.000 A 
ATOM     18  C13 UNL     1      26.116  -8.538 -33.281  0.00  0.00    +0.000 A 
ATOM     19  C14 UNL     1      24.732  -8.715 -33.364  0.00  0.00    +0.000 A 
ATOM     20  C15 UNL     1      23.975  -8.000 -34.307  0.00  0.00    +0.000 A 
ATOM     21  C16 UNL     1      24.635  -7.103 -35.168  0.00  0.00    +0.000 A 
ATOM     22  C17 UNL     1      26.018  -6.926 -35.084  0.00  0.00    +0.000 A 
BRANCH  20  23
ATOM     23  N3  UNL     1      22.551  -8.184 -34.390  0.00  0.00    +0.000 N 
ATOM     24  O2  UNL     1      22.005  -9.181 -33.874  0.00  0.00    +0.000 OA
ATOM     25  O3  UNL     1      21.764  -7.263 -35.045  0.00  0.00    +0.000 OA
ENDBRANCH  20  23
ENDBRANCH  16  17
ENDBRANCH   6  11
BRANCH   1  27
ATOM     26  C1  UNL     1      29.290  -9.368 -43.016  0.00  0.00    +0.000 C 
ATOM     27  C2  UNL     1      29.467 -10.617 -42.144  0.00  0.00    +0.000 C 
ATOM     28  C3  UNL     1      30.899 -11.153 -42.247  0.00  0.00    +0.000 C 
ENDBRANCH   1  27
BRANCH  10  29
ATOM     29  O4  UNL     1      26.967 -11.435 -40.876  0.00  0.00    +0.000 OA
ATOM     30  H18 UNL     1      26.435 -12.197 -40.474  0.00  0.00    +0.000 HD
ENDBRANCH  10  29
TORSDOF 5
ENDMDL
