MODEL 1
REMARK VINA RESULT:    -5.585      0.000      0.000
REMARK INTER + INTRA:          -6.089
REMARK INTER:                  -6.075
REMARK INTRA:                  -0.014
REMARK UNBOUND:                -0.014
REMARK  Name = resultss/4CJN/ligands/lig_316_t1.pdb
REMARK  3 active torsions:
REMARK  status: ('A' for Active; 'I' for Inactive)
REMARK    1  A    between atoms: C1_1  and  O1_2
REMARK    2  A    between atoms: O1_2  and  C2_3
REMARK    3  A    between atoms: C14_19  and  O6_20
REMARK                            x       y       z     vdW  Elec       q    Type
REMARK                         _______ _______ _______ _____ _____    ______ ____
ROOT
ATOM      1  C2  UNL     1      29.688  -9.942 -41.722  0.00  0.00    +0.000 A 
ATOM      2  C3  UNL     1      28.313  -9.791 -41.965  0.00  0.00    +0.000 A 
ATOM      3  C4  UNL     1      27.417  -9.714 -40.905  0.00  0.00    +0.000 A 
ATOM      4  C5  UNL     1      27.874  -9.741 -39.588  0.00  0.00    +0.000 A 
ATOM      5  O2  UNL     1      26.986  -9.643 -38.608  0.00  0.00    +0.000 OA
ATOM      6  C6  UNL     1      27.314  -9.631 -37.323  0.00  0.00    +0.000 A 
ATOM      7  C7  UNL     1      26.199  -9.506 -36.320  0.00  0.00    +0.000 C 
ATOM      8  C8  UNL     1      26.631  -9.936 -34.950  0.00  0.00    +0.000 C 
ATOM      9  O3  UNL     1      25.865 -10.557 -34.231  0.00  0.00    +0.000 OA
ATOM     10  C9  UNL     1      27.968  -9.501 -34.429  0.00  0.00    +0.000 C 
ATOM     11  C10 UNL     1      29.025  -9.651 -35.485  0.00  0.00    +0.000 C 
ATOM     12  O4  UNL     1      30.228  -9.712 -35.115  0.00  0.00    +0.000 OA
ATOM     13  C11 UNL     1      28.670  -9.684 -36.935  0.00  0.00    +0.000 A 
ATOM     14  C12 UNL     1      29.650  -9.773 -37.949  0.00  0.00    +0.000 A 
ATOM     15  O5  UNL     1      30.868  -9.739 -37.633  0.00  0.00    +0.000 OA
ATOM     16  C13 UNL     1      29.257  -9.857 -39.308  0.00  0.00    +0.000 A 
ATOM     17  C14 UNL     1      30.163 -10.011 -40.401  0.00  0.00    +0.000 A 
ENDROOT
BRANCH   1  19
ATOM     18  C1  UNL     1      30.988 -11.270 -43.402  0.00  0.00    +0.000 C 
ATOM     19  O1  UNL     1      30.617 -10.048 -42.770  0.00  0.00    +0.000 OA
ENDBRANCH   1  19
BRANCH  17  20
ATOM     20  O6  UNL     1      31.529 -10.265 -40.240  0.00  0.00    +0.000 OA
ATOM     21  H10 UNL     1      32.264  -9.615 -40.476  0.00  0.00    +0.000 HD
ENDBRANCH  17  20
TORSDOF 2
ENDMDL
MODEL 2
REMARK VINA RESULT:    -5.467      2.101      2.945
REMARK INTER + INTRA:          -5.960
REMARK INTER:                  -5.891
REMARK INTRA:                  -0.069
REMARK UNBOUND:                -0.014
REMARK  Name = resultss/4CJN/ligands/lig_316_t1.pdb
REMARK  3 active torsions:
REMARK  status: ('A' for Active; 'I' for Inactive)
REMARK    1  A    between atoms: C1_1  and  O1_2
REMARK    2  A    between atoms: O1_2  and  C2_3
REMARK    3  A    between atoms: C14_19  and  O6_20
REMARK                            x       y       z     vdW  Elec       q    Type
REMARK                         _______ _______ _______ _____ _____    ______ ____
ROOT
ATOM      1  C2  UNL     1      27.502  -9.461 -41.113  0.00  0.00    +0.000 A 
ATOM      2  C3  UNL     1      26.564  -8.476 -41.464  0.00  0.00    +0.000 A 
ATOM      3  C4  UNL     1      25.685  -7.973 -40.511  0.00  0.00    +0.000 A 
ATOM      4  C5  UNL     1      25.752  -8.406 -39.187  0.00  0.00    +0.000 A 
ATOM      5  O2  UNL     1      24.908  -7.884 -38.307  0.00  0.00    +0.000 OA
ATOM      6  C6  UNL     1      24.904  -8.204 -37.020  0.00  0.00    +0.000 A 
ATOM      7  C7  UNL     1      23.893  -7.524 -36.136  0.00  0.00    +0.000 C 
ATOM      8  C8  UNL     1      23.694  -8.264 -34.847  0.00  0.00    +0.000 C 
ATOM      9  O3  UNL     1      22.579  -8.353 -34.357  0.00  0.00    +0.000 OA
ATOM     10  C9  UNL     1      24.886  -8.794 -34.109  0.00  0.00    +0.000 C 
ATOM     11  C10 UNL     1      25.848  -9.453 -35.056  0.00  0.00    +0.000 C 
ATOM     12  O4  UNL     1      26.677 -10.275 -34.582  0.00  0.00    +0.000 OA
ATOM     13  C11 UNL     1      25.854  -9.115 -36.511  0.00  0.00    +0.000 A 
ATOM     14  C12 UNL     1      26.781  -9.684 -37.413  0.00  0.00    +0.000 A 
ATOM     15  O5  UNL     1      27.689 -10.435 -36.969  0.00  0.00    +0.000 OA
ATOM     16  C13 UNL     1      26.709  -9.373 -38.793  0.00  0.00    +0.000 A 
ATOM     17  C14 UNL     1      27.557  -9.939 -39.793  0.00  0.00    +0.000 A 
ENDROOT
BRANCH   1  19
ATOM     18  C1  UNL     1      29.440  -9.289 -42.692  0.00  0.00    +0.000 C 
ATOM     19  O1  UNL     1      28.387 -10.008 -42.057  0.00  0.00    +0.000 OA
ENDBRANCH   1  19
BRANCH  17  20
ATOM     20  O6  UNL     1      28.444 -10.991 -39.544  0.00  0.00    +0.000 OA
ATOM     21  H10 UNL     1      29.175 -10.971 -38.849  0.00  0.00    +0.000 HD
ENDBRANCH  17  20
TORSDOF 2
ENDMDL
MODEL 3
REMARK VINA RESULT:    -5.446      2.698      7.310
REMARK INTER + INTRA:          -5.939
REMARK INTER:                  -5.874
REMARK INTRA:                  -0.065
REMARK UNBOUND:                -0.014
REMARK  Name = resultss/4CJN/ligands/lig_316_t1.pdb
REMARK  3 active torsions:
REMARK  status: ('A' for Active; 'I' for Inactive)
REMARK    1  A    between atoms: C1_1  and  O1_2
REMARK    2  A    between atoms: O1_2  and  C2_3
REMARK    3  A    between atoms: C14_19  and  O6_20
REMARK                            x       y       z     vdW  Elec       q    Type
REMARK                         _______ _______ _______ _____ _____    ______ ____
ROOT
ATOM      1  C2  UNL     1      23.967  -8.253 -34.368  0.00  0.00    +0.000 A 
ATOM      2  C3  UNL     1      24.996  -9.015 -33.790  0.00  0.00    +0.000 A 
ATOM      3  C4  UNL     1      25.987  -9.576 -34.588  0.00  0.00    +0.000 A 
ATOM      4  C5  UNL     1      25.998  -9.353 -35.965  0.00  0.00    +0.000 A 
ATOM      5  O2  UNL     1      26.974  -9.890 -36.685  0.00  0.00    +0.000 OA
ATOM      6  C6  UNL     1      27.095  -9.719 -37.994  0.00  0.00    +0.000 A 
ATOM      7  C7  UNL     1      28.259 -10.383 -38.679  0.00  0.00    +0.000 C 
ATOM      8  C8  UNL     1      28.050 -10.486 -40.160  0.00  0.00    +0.000 C 
ATOM      9  O3  UNL     1      28.414 -11.482 -40.764  0.00  0.00    +0.000 OA
ATOM     10  C9  UNL     1      27.493  -9.313 -40.909  0.00  0.00    +0.000 C 
ATOM     11  C10 UNL     1      26.341  -8.704 -40.164  0.00  0.00    +0.000 C 
ATOM     12  O4  UNL     1      25.528  -7.989 -40.809  0.00  0.00    +0.000 OA
ATOM     13  C11 UNL     1      26.182  -8.901 -38.691  0.00  0.00    +0.000 A 
ATOM     14  C12 UNL     1      25.134  -8.297 -37.960  0.00  0.00    +0.000 A 
ATOM     15  O5  UNL     1      24.357  -7.498 -38.543  0.00  0.00    +0.000 OA
ATOM     16  C13 UNL     1      24.995  -8.561 -36.575  0.00  0.00    +0.000 A 
ATOM     17  C14 UNL     1      23.940  -8.051 -35.758  0.00  0.00    +0.000 A 
ENDROOT
BRANCH   1  19
ATOM     18  C1  UNL     1      23.043  -6.473 -32.866  0.00  0.00    +0.000 C 
ATOM     19  O1  UNL     1      22.937  -7.694 -33.593  0.00  0.00    +0.000 OA
ENDBRANCH   1  19
BRANCH  17  20
ATOM     20  O6  UNL     1      22.830  -7.371 -36.270  0.00  0.00    +0.000 OA
ATOM     21  H10 UNL     1      22.400  -7.568 -37.161  0.00  0.00    +0.000 HD
ENDBRANCH  17  20
TORSDOF 2
ENDMDL
MODEL 4
REMARK VINA RESULT:    -5.328      1.711      6.705
REMARK INTER + INTRA:          -5.810
REMARK INTER:                  -5.753
REMARK INTRA:                  -0.057
REMARK UNBOUND:                -0.014
REMARK  Name = resultss/4CJN/ligands/lig_316_t1.pdb
REMARK  3 active torsions:
REMARK  status: ('A' for Active; 'I' for Inactive)
REMARK    1  A    between atoms: C1_1  and  O1_2
REMARK    2  A    between atoms: O1_2  and  C2_3
REMARK    3  A    between atoms: C14_19  and  O6_20
REMARK                            x       y       z     vdW  Elec       q    Type
REMARK                         _______ _______ _______ _____ _____    ______ ____
ROOT
ATOM      1  C2  UNL     1      25.762  -8.905 -35.712  0.00  0.00    +0.000 A 
ATOM      2  C3  UNL     1      27.043  -9.202 -35.217  0.00  0.00    +0.000 A 
ATOM      3  C4  UNL     1      28.074  -9.530 -36.090  0.00  0.00    +0.000 A 
ATOM      4  C5  UNL     1      27.863  -9.526 -37.469  0.00  0.00    +0.000 A 
ATOM      5  O2  UNL     1      28.880  -9.825 -38.265  0.00  0.00    +0.000 OA
ATOM      6  C6  UNL     1      28.797  -9.824 -39.589  0.00  0.00    +0.000 A 
ATOM      7  C7  UNL     1      30.037 -10.176 -40.366  0.00  0.00    +0.000 C 
ATOM      8  C8  UNL     1      29.718 -10.562 -41.779  0.00  0.00    +0.000 C 
ATOM      9  O3  UNL     1      30.330 -11.469 -42.321  0.00  0.00    +0.000 OA
ATOM     10  C9  UNL     1      28.722  -9.756 -42.557  0.00  0.00    +0.000 C 
ATOM     11  C10 UNL     1      27.518  -9.442 -41.716  0.00  0.00    +0.000 C 
ATOM     12  O4  UNL     1      26.448  -9.132 -42.305  0.00  0.00    +0.000 OA
ATOM     13  C11 UNL     1      27.592  -9.455 -40.225  0.00  0.00    +0.000 A 
ATOM     14  C12 UNL     1      26.487  -9.116 -39.412  0.00  0.00    +0.000 A 
ATOM     15  O5  UNL     1      25.428  -8.705 -39.955  0.00  0.00    +0.000 OA
ATOM     16  C13 UNL     1      26.593  -9.197 -38.002  0.00  0.00    +0.000 A 
ATOM     17  C14 UNL     1      25.521  -8.935 -37.096  0.00  0.00    +0.000 A 
ENDROOT
BRANCH   1  19
ATOM     18  C1  UNL     1      24.636  -8.937 -33.474  0.00  0.00    +0.000 C 
ATOM     19  O1  UNL     1      24.693  -8.595 -34.856  0.00  0.00    +0.000 OA
ENDBRANCH   1  19
BRANCH  17  20
ATOM     20  O6  UNL     1      24.199  -8.731 -37.505  0.00  0.00    +0.000 OA
ATOM     21  H10 UNL     1      23.606  -7.986 -37.172  0.00  0.00    +0.000 HD
ENDBRANCH  17  20
TORSDOF 2
ENDMDL
MODEL 5
REMARK VINA RESULT:    -5.326      4.928      8.533
REMARK INTER + INTRA:          -5.807
REMARK INTER:                  -5.738
REMARK INTRA:                  -0.069
REMARK UNBOUND:                -0.014
REMARK  Name = resultss/4CJN/ligands/lig_316_t1.pdb
REMARK  3 active torsions:
REMARK  status: ('A' for Active; 'I' for Inactive)
REMARK    1  A    between atoms: C1_1  and  O1_2
REMARK    2  A    between atoms: O1_2  and  C2_3
REMARK    3  A    between atoms: C14_19  and  O6_20
REMARK                            x       y       z     vdW  Elec       q    Type
REMARK                         _______ _______ _______ _____ _____    ______ ____
ROOT
ATOM      1  C2  UNL     1      27.144 -10.130 -41.212  0.00  0.00    +0.000 A 
ATOM      2  C3  UNL     1      28.293  -9.661 -41.867  0.00  0.00    +0.000 A 
ATOM      3  C4  UNL     1      28.179  -8.875 -43.009  0.00  0.00    +0.000 A 
ATOM      4  C5  UNL     1      26.925  -8.507 -43.492  0.00  0.00    +0.000 A 
ATOM      5  O2  UNL     1      26.863  -7.739 -44.572  0.00  0.00    +0.000 OA
ATOM      6  C6  UNL     1      25.724  -7.309 -45.099  0.00  0.00    +0.000 A 
ATOM      7  C7  UNL     1      25.809  -6.437 -46.323  0.00  0.00    +0.000 C 
ATOM      8  C8  UNL     1      24.503  -6.383 -47.059  0.00  0.00    +0.000 C 
ATOM      9  O3  UNL     1      24.487  -6.375 -48.280  0.00  0.00    +0.000 OA
ATOM     10  C9  UNL     1      23.228  -6.227 -46.288  0.00  0.00    +0.000 C 
ATOM     11  C10 UNL     1      23.220  -7.124 -45.084  0.00  0.00    +0.000 C 
ATOM     12  O4  UNL     1      22.108  -7.411 -44.565  0.00  0.00    +0.000 OA
ATOM     13  C11 UNL     1      24.493  -7.630 -44.489  0.00  0.00    +0.000 A 
ATOM     14  C12 UNL     1      24.515  -8.434 -43.328  0.00  0.00    +0.000 A 
ATOM     15  O5  UNL     1      23.437  -8.666 -42.719  0.00  0.00    +0.000 OA
ATOM     16  C13 UNL     1      25.745  -8.935 -42.836  0.00  0.00    +0.000 A 
ATOM     17  C14 UNL     1      25.870  -9.803 -41.708  0.00  0.00    +0.000 A 
ENDROOT
BRANCH   1  19
ATOM     18  C1  UNL     1      27.752 -10.532 -38.815  0.00  0.00    +0.000 C 
ATOM     19  O1  UNL     1      27.224 -10.947 -40.071  0.00  0.00    +0.000 OA
ENDBRANCH   1  19
BRANCH  17  20
ATOM     20  O6  UNL     1      24.777 -10.391 -41.064  0.00  0.00    +0.000 OA
ATOM     21  H10 UNL     1      24.447 -11.329 -41.239  0.00  0.00    +0.000 HD
ENDBRANCH  17  20
TORSDOF 2
ENDMDL
MODEL 6
REMARK VINA RESULT:    -5.259      1.273      5.888
REMARK INTER + INTRA:          -5.735
REMARK INTER:                  -5.666
REMARK INTRA:                  -0.068
REMARK UNBOUND:                -0.014
REMARK  Name = resultss/4CJN/ligands/lig_316_t1.pdb
REMARK  3 active torsions:
REMARK  status: ('A' for Active; 'I' for Inactive)
REMARK    1  A    between atoms: C1_1  and  O1_2
REMARK    2  A    between atoms: O1_2  and  C2_3
REMARK    3  A    between atoms: C14_19  and  O6_20
REMARK                            x       y       z     vdW  Elec       q    Type
REMARK                         _______ _______ _______ _____ _____    ______ ____
ROOT
ATOM      1  C2  UNL     1      28.485  -9.721 -34.491  0.00  0.00    +0.000 A 
ATOM      2  C3  UNL     1      27.088  -9.691 -34.637  0.00  0.00    +0.000 A 
ATOM      3  C4  UNL     1      26.515  -9.665 -35.904  0.00  0.00    +0.000 A 
ATOM      4  C5  UNL     1      27.316  -9.712 -37.044  0.00  0.00    +0.000 A 
ATOM      5  O2  UNL     1      26.726  -9.706 -38.232  0.00  0.00    +0.000 OA
ATOM      6  C6  UNL     1      27.390  -9.775 -39.378  0.00  0.00    +0.000 A 
ATOM      7  C7  UNL     1      26.586  -9.767 -40.650  0.00  0.00    +0.000 C 
ATOM      8  C8  UNL     1      27.429  -9.412 -41.839  0.00  0.00    +0.000 C 
ATOM      9  O3  UNL     1      26.974  -8.706 -42.725  0.00  0.00    +0.000 OA
ATOM     10  C9  UNL     1      28.791 -10.020 -41.985  0.00  0.00    +0.000 C 
ATOM     11  C10 UNL     1      29.528  -9.996 -40.677  0.00  0.00    +0.000 C 
ATOM     12  O4  UNL     1      30.784 -10.093 -40.702  0.00  0.00    +0.000 OA
ATOM     13  C11 UNL     1      28.795  -9.901 -39.379  0.00  0.00    +0.000 A 
ATOM     14  C12 UNL     1      29.462  -9.926 -38.133  0.00  0.00    +0.000 A 
ATOM     15  O5  UNL     1      30.706 -10.120 -38.105  0.00  0.00    +0.000 OA
ATOM     16  C13 UNL     1      28.726  -9.777 -36.932  0.00  0.00    +0.000 A 
ATOM     17  C14 UNL     1      29.309  -9.728 -35.629  0.00  0.00    +0.000 A 
ENDROOT
BRANCH   1  19
ATOM     18  C1  UNL     1      29.187  -8.588 -32.369  0.00  0.00    +0.000 C 
ATOM     19  O1  UNL     1      29.096  -9.722 -33.226  0.00  0.00    +0.000 OA
ENDBRANCH   1  19
BRANCH  17  20
ATOM     20  O6  UNL     1      30.687  -9.653 -35.405  0.00  0.00    +0.000 OA
ATOM     21  H10 UNL     1      31.281 -10.447 -35.219  0.00  0.00    +0.000 HD
ENDBRANCH  17  20
TORSDOF 2
ENDMDL
MODEL 7
REMARK VINA RESULT:    -5.045      1.995      5.932
REMARK INTER + INTRA:          -5.502
REMARK INTER:                  -5.434
REMARK INTRA:                  -0.068
REMARK UNBOUND:                -0.014
REMARK  Name = resultss/4CJN/ligands/lig_316_t1.pdb
REMARK  3 active torsions:
REMARK  status: ('A' for Active; 'I' for Inactive)
REMARK    1  A    between atoms: C1_1  and  O1_2
REMARK    2  A    between atoms: O1_2  and  C2_3
REMARK    3  A    between atoms: C14_19  and  O6_20
REMARK                            x       y       z     vdW  Elec       q    Type
REMARK                         _______ _______ _______ _____ _____    ______ ____
ROOT
ATOM      1  C2  UNL     1      28.018  -9.820 -34.778  0.00  0.00    +0.000 A 
ATOM      2  C3  UNL     1      26.668  -9.526 -34.527  0.00  0.00    +0.000 A 
ATOM      3  C4  UNL     1      25.810  -9.218 -35.577  0.00  0.00    +0.000 A 
ATOM      4  C5  UNL     1      26.266  -9.241 -36.895  0.00  0.00    +0.000 A 
ATOM      5  O2  UNL     1      25.408  -8.961 -37.867  0.00  0.00    +0.000 OA
ATOM      6  C6  UNL     1      25.729  -8.980 -39.153  0.00  0.00    +0.000 A 
ATOM      7  C7  UNL     1      24.648  -8.649 -40.146  0.00  0.00    +0.000 C 
ATOM      8  C8  UNL     1      25.216  -8.280 -41.485  0.00  0.00    +0.000 C 
ATOM      9  O3  UNL     1      24.707  -7.386 -42.142  0.00  0.00    +0.000 OA
ATOM     10  C9  UNL     1      26.339  -9.090 -42.057  0.00  0.00    +0.000 C 
ATOM     11  C10 UNL     1      27.373  -9.383 -41.009  0.00  0.00    +0.000 C 
ATOM     12  O4  UNL     1      28.533  -9.694 -41.390  0.00  0.00    +0.000 OA
ATOM     13  C11 UNL     1      27.031  -9.349 -39.555  0.00  0.00    +0.000 A 
ATOM     14  C12 UNL     1      27.973  -9.668 -38.552  0.00  0.00    +0.000 A 
ATOM     15  O5  UNL     1      29.114 -10.079 -38.887  0.00  0.00    +0.000 OA
ATOM     16  C13 UNL     1      27.613  -9.567 -37.185  0.00  0.00    +0.000 A 
ATOM     17  C14 UNL     1      28.506  -9.808 -36.096  0.00  0.00    +0.000 A 
ENDROOT
BRANCH   1  19
ATOM     18  C1  UNL     1      29.452  -9.145 -32.838  0.00  0.00    +0.000 C 
ATOM     19  O1  UNL     1      28.917 -10.110 -33.738  0.00  0.00    +0.000 OA
ENDBRANCH   1  19
BRANCH  17  20
ATOM     20  O6  UNL     1      29.880 -10.008 -36.257  0.00  0.00    +0.000 OA
ATOM     21  H10 UNL     1      30.478  -9.435 -36.832  0.00  0.00    +0.000 HD
ENDBRANCH  17  20
TORSDOF 2
ENDMDL
MODEL 8
REMARK VINA RESULT:    -4.975      2.407      3.226
REMARK INTER + INTRA:          -5.425
REMARK INTER:                  -5.355
REMARK INTRA:                  -0.070
REMARK UNBOUND:                -0.014
REMARK  Name = resultss/4CJN/ligands/lig_316_t1.pdb
REMARK  3 active torsions:
REMARK  status: ('A' for Active; 'I' for Inactive)
REMARK    1  A    between atoms: C1_1  and  O1_2
REMARK    2  A    between atoms: O1_2  and  C2_3
REMARK    3  A    between atoms: C14_19  and  O6_20
REMARK                            x       y       z     vdW  Elec       q    Type
REMARK                         _______ _______ _______ _____ _____    ______ ____
ROOT
ATOM      1  C2  UNL     1      25.666  -8.326 -42.407  0.00  0.00    +0.000 A 
ATOM      2  C3  UNL     1      24.502  -7.783 -41.839  0.00  0.00    +0.000 A 
ATOM      3  C4  UNL     1      24.293  -7.852 -40.465  0.00  0.00    +0.000 A 
ATOM      4  C5  UNL     1      25.254  -8.421 -39.630  0.00  0.00    +0.000 A 
ATOM      5  O2  UNL     1      25.023  -8.447 -38.325  0.00  0.00    +0.000 OA
ATOM      6  C6  UNL     1      25.880  -8.938 -37.440  0.00  0.00    +0.000 A 
ATOM      7  C7  UNL     1      25.486  -8.893 -35.989  0.00  0.00    +0.000 C 
ATOM      8  C8  UNL     1      26.301  -9.841 -35.161  0.00  0.00    +0.000 C 
ATOM      9  O3  UNL     1      25.779 -10.466 -34.251  0.00  0.00    +0.000 OA
ATOM     10  C9  UNL     1      27.780  -9.933 -35.386  0.00  0.00    +0.000 C 
ATOM     11  C10 UNL     1      28.094  -9.969 -36.854  0.00  0.00    +0.000 C 
ATOM     12  O4  UNL     1      29.210 -10.432 -37.211  0.00  0.00    +0.000 OA
ATOM     13  C11 UNL     1      27.131  -9.435 -37.864  0.00  0.00    +0.000 A 
ATOM     14  C12 UNL     1      27.424  -9.413 -39.246  0.00  0.00    +0.000 A 
ATOM     15  O5  UNL     1      28.564  -9.773 -39.639  0.00  0.00    +0.000 OA
ATOM     16  C13 UNL     1      26.455  -8.946 -40.167  0.00  0.00    +0.000 A 
ATOM     17  C14 UNL     1      26.627  -8.939 -41.585  0.00  0.00    +0.000 A 
ENDROOT
BRANCH   1  19
ATOM     18  C1  UNL     1      26.327  -7.147 -44.516  0.00  0.00    +0.000 C 
ATOM     19  O1  UNL     1      25.896  -8.296 -43.792  0.00  0.00    +0.000 OA
ENDBRANCH   1  19
BRANCH  17  20
ATOM     20  O6  UNL     1      27.707  -9.547 -42.233  0.00  0.00    +0.000 OA
ATOM     21  H10 UNL     1      28.339  -9.073 -42.860  0.00  0.00    +0.000 HD
ENDBRANCH  17  20
TORSDOF 2
ENDMDL
MODEL 9
REMARK VINA RESULT:    -4.921      2.335      6.679
REMARK INTER + INTRA:          -5.367
REMARK INTER:                  -5.310
REMARK INTRA:                  -0.057
REMARK UNBOUND:                -0.014
REMARK  Name = resultss/4CJN/ligands/lig_316_t1.pdb
REMARK  3 active torsions:
REMARK  status: ('A' for Active; 'I' for Inactive)
REMARK    1  A    between atoms: C1_1  and  O1_2
REMARK    2  A    between atoms: O1_2  and  C2_3
REMARK    3  A    between atoms: C14_19  and  O6_20
REMARK                            x       y       z     vdW  Elec       q    Type
REMARK                         _______ _______ _______ _____ _____    ______ ____
ROOT
ATOM      1  C2  UNL     1      25.034  -8.681 -35.091  0.00  0.00    +0.000 A 
ATOM      2  C3  UNL     1      24.129  -7.761 -35.645  0.00  0.00    +0.000 A 
ATOM      3  C4  UNL     1      24.193  -7.441 -36.996  0.00  0.00    +0.000 A 
ATOM      4  C5  UNL     1      25.125  -8.061 -37.828  0.00  0.00    +0.000 A 
ATOM      5  O2  UNL     1      25.136  -7.741 -39.115  0.00  0.00    +0.000 OA
ATOM      6  C6  UNL     1      25.961  -8.289 -39.997  0.00  0.00    +0.000 A 
ATOM      7  C7  UNL     1      25.854  -7.834 -41.428  0.00  0.00    +0.000 C 
ATOM      8  C8  UNL     1      27.083  -8.179 -42.215  0.00  0.00    +0.000 C 
ATOM      9  O3  UNL     1      27.518  -7.398 -43.047  0.00  0.00    +0.000 OA
ATOM     10  C9  UNL     1      27.706  -9.532 -42.053  0.00  0.00    +0.000 C 
ATOM     11  C10 UNL     1      27.774  -9.917 -40.604  0.00  0.00    +0.000 C 
ATOM     12  O4  UNL     1      28.599 -10.808 -40.265  0.00  0.00    +0.000 OA
ATOM     13  C11 UNL     1      26.863  -9.297 -39.595  0.00  0.00    +0.000 A 
ATOM     14  C12 UNL     1      26.874  -9.678 -38.235  0.00  0.00    +0.000 A 
ATOM     15  O5  UNL     1      27.611 -10.630 -37.868  0.00  0.00    +0.000 OA
ATOM     16  C13 UNL     1      26.029  -9.019 -37.308  0.00  0.00    +0.000 A 
ATOM     17  C14 UNL     1      26.007  -9.286 -35.905  0.00  0.00    +0.000 A 
ENDROOT
BRANCH   1  19
ATOM     18  C1  UNL     1      23.843  -9.023 -32.913  0.00  0.00    +0.000 C 
ATOM     19  O1  UNL     1      25.014  -9.007 -33.724  0.00  0.00    +0.000 OA
ENDBRANCH   1  19
BRANCH  17  20
ATOM     20  O6  UNL     1      26.936 -10.110 -35.263  0.00  0.00    +0.000 OA
ATOM     21  H10 UNL     1      26.929 -11.119 -35.301  0.00  0.00    +0.000 HD
ENDBRANCH  17  20
TORSDOF 2
ENDMDL
