MODEL 1
REMARK VINA RESULT:    -5.519      0.000      0.000
REMARK INTER + INTRA:          -6.859
REMARK INTER:                  -6.648
REMARK INTRA:                  -0.210
REMARK UNBOUND:                -0.210
REMARK  Name = resultss/4CJN/ligands/lig_294_t1.pdb
REMARK  7 active torsions:
REMARK  status: ('A' for Active; 'I' for Inactive)
REMARK    1  A    between atoms: C1_1  and  O1_2
REMARK    2  A    between atoms: O1_2  and  C2_3
REMARK    3  A    between atoms: C6_8  and  O3_9
REMARK    4  A    between atoms: C8_11  and  O4_12
REMARK    5  A    between atoms: O4_12  and  C9_13
REMARK    6  A    between atoms: C12_16  and  O5_17
REMARK    7  A    between atoms: O5_17  and  C13_18
REMARK                            x       y       z     vdW  Elec       q    Type
REMARK                         _______ _______ _______ _____ _____    ______ ____
ROOT
ATOM      1  C2  UNL     1      27.827  -9.851 -35.167  0.00  0.00    +0.000 A 
ATOM      2  C3  UNL     1      26.546  -9.300 -35.038  0.00  0.00    +0.000 A 
ATOM      3  C4  UNL     1      25.772  -8.962 -36.156  0.00  0.00    +0.000 A 
ATOM      4  O2  UNL     1      24.625  -8.472 -35.974  0.00  0.00    +0.000 OA
ATOM      5  C5  UNL     1      26.277  -9.182 -37.455  0.00  0.00    +0.000 A 
ATOM      6  C6  UNL     1      25.594  -8.845 -38.638  0.00  0.00    +0.000 A 
ATOM      7  C7  UNL     1      26.170  -9.186 -39.895  0.00  0.00    +0.000 A 
ATOM      8  C8  UNL     1      25.470  -9.067 -41.128  0.00  0.00    +0.000 A 
ATOM      9  C10 UNL     1      26.148  -9.330 -42.334  0.00  0.00    +0.000 A 
ATOM     10  C11 UNL     1      27.469  -9.766 -42.332  0.00  0.00    +0.000 A 
ATOM     11  C12 UNL     1      28.143  -9.982 -41.124  0.00  0.00    +0.000 A 
ATOM     12  C14 UNL     1      27.495  -9.710 -39.912  0.00  0.00    +0.000 A 
ATOM     13  O6  UNL     1      28.149  -9.966 -38.785  0.00  0.00    +0.000 OA
ATOM     14  C15 UNL     1      27.631  -9.761 -37.588  0.00  0.00    +0.000 A 
ATOM     15  C16 UNL     1      28.366 -10.078 -36.446  0.00  0.00    +0.000 A 
ENDROOT
BRANCH   1  17
ATOM     16  C1  UNL     1      29.852  -9.709 -33.706  0.00  0.00    +0.000 C 
ATOM     17  O1  UNL     1      28.533 -10.158 -33.994  0.00  0.00    +0.000 OA
ENDBRANCH   1  17
BRANCH   6  18
ATOM     18  O3  UNL     1      24.392  -8.138 -38.534  0.00  0.00    +0.000 OA
ATOM     19  H5  UNL     1      24.318  -7.140 -38.680  0.00  0.00    +0.000 HD
ENDBRANCH   6  18
BRANCH   8  20
ATOM     20  O4  UNL     1      24.103  -8.744 -41.140  0.00  0.00    +0.000 OA
ATOM     21  C9  UNL     1      23.323  -8.519 -42.310  0.00  0.00    +0.000 C 
ENDBRANCH   8  20
BRANCH  11  22
ATOM     22  O5  UNL     1      29.462 -10.467 -41.083  0.00  0.00    +0.000 OA
ATOM     23  C13 UNL     1      30.168 -10.982 -42.208  0.00  0.00    +0.000 C 
ENDBRANCH  11  22
TORSDOF 4
ENDMDL
MODEL 2
REMARK VINA RESULT:    -5.420      1.400      4.030
REMARK INTER + INTRA:          -6.739
REMARK INTER:                  -6.524
REMARK INTRA:                  -0.215
REMARK UNBOUND:                -0.210
REMARK  Name = resultss/4CJN/ligands/lig_294_t1.pdb
REMARK  7 active torsions:
REMARK  status: ('A' for Active; 'I' for Inactive)
REMARK    1  A    between atoms: C1_1  and  O1_2
REMARK    2  A    between atoms: O1_2  and  C2_3
REMARK    3  A    between atoms: C6_8  and  O3_9
REMARK    4  A    between atoms: C8_11  and  O4_12
REMARK    5  A    between atoms: O4_12  and  C9_13
REMARK    6  A    between atoms: C12_16  and  O5_17
REMARK    7  A    between atoms: O5_17  and  C13_18
REMARK                            x       y       z     vdW  Elec       q    Type
REMARK                         _______ _______ _______ _____ _____    ______ ____
ROOT
ATOM      1  C2  UNL     1      26.343  -9.071 -34.455  0.00  0.00    +0.000 A 
ATOM      2  C3  UNL     1      27.692  -9.412 -34.300  0.00  0.00    +0.000 A 
ATOM      3  C4  UNL     1      28.504  -9.727 -35.397  0.00  0.00    +0.000 A 
ATOM      4  O2  UNL     1      29.712 -10.024 -35.191  0.00  0.00    +0.000 OA
ATOM      5  C5  UNL     1      27.968  -9.699 -36.702  0.00  0.00    +0.000 A 
ATOM      6  C6  UNL     1      28.690 -10.032 -37.862  0.00  0.00    +0.000 A 
ATOM      7  C7  UNL     1      28.066  -9.892 -39.135  0.00  0.00    +0.000 A 
ATOM      8  C8  UNL     1      28.772 -10.013 -40.364  0.00  0.00    +0.000 A 
ATOM      9  C10 UNL     1      28.059  -9.960 -41.576  0.00  0.00    +0.000 A 
ATOM     10  C11 UNL     1      26.687  -9.726 -41.592  0.00  0.00    +0.000 A 
ATOM     11  C12 UNL     1      25.992  -9.508 -40.395  0.00  0.00    +0.000 A 
ATOM     12  C14 UNL     1      26.678  -9.574 -39.175  0.00  0.00    +0.000 A 
ATOM     13  O6  UNL     1      25.996  -9.320 -38.064  0.00  0.00    +0.000 OA
ATOM     14  C15 UNL     1      26.542  -9.341 -36.862  0.00  0.00    +0.000 A 
ATOM     15  C16 UNL     1      25.772  -9.039 -35.740  0.00  0.00    +0.000 A 
ENDROOT
BRANCH   1  17
ATOM     16  C1  UNL     1      24.200  -8.978 -33.167  0.00  0.00    +0.000 C 
ATOM     17  O1  UNL     1      25.602  -8.771 -33.301  0.00  0.00    +0.000 OA
ENDBRANCH   1  17
BRANCH   6  18
ATOM     18  O3  UNL     1      29.985 -10.541 -37.717  0.00  0.00    +0.000 OA
ATOM     19  H5  UNL     1      30.788 -10.169 -38.204  0.00  0.00    +0.000 HD
ENDBRANCH   6  18
BRANCH   8  20
ATOM     20  O4  UNL     1      30.172 -10.128 -40.370  0.00  0.00    +0.000 OA
ATOM     21  C9  UNL     1      30.992 -10.111 -41.534  0.00  0.00    +0.000 C 
ENDBRANCH   8  20
BRANCH  11  22
ATOM     22  O5  UNL     1      24.616  -9.222 -40.375  0.00  0.00    +0.000 OA
ATOM     23  C13 UNL     1      23.920  -8.529 -41.406  0.00  0.00    +0.000 C 
ENDBRANCH  11  22
TORSDOF 4
ENDMDL
MODEL 3
REMARK VINA RESULT:    -5.271      1.329      5.606
REMARK INTER + INTRA:          -6.559
REMARK INTER:                  -6.314
REMARK INTRA:                  -0.245
REMARK UNBOUND:                -0.210
REMARK  Name = resultss/4CJN/ligands/lig_294_t1.pdb
REMARK  7 active torsions:
REMARK  status: ('A' for Active; 'I' for Inactive)
REMARK    1  A    between atoms: C1_1  and  O1_2
REMARK    2  A    between atoms: O1_2  and  C2_3
REMARK    3  A    between atoms: C6_8  and  O3_9
REMARK    4  A    between atoms: C8_11  and  O4_12
REMARK    5  A    between atoms: O4_12  and  C9_13
REMARK    6  A    between atoms: C12_16  and  O5_17
REMARK    7  A    between atoms: O5_17  and  C13_18
REMARK                            x       y       z     vdW  Elec       q    Type
REMARK                         _______ _______ _______ _____ _____    ______ ____
ROOT
ATOM      1  C2  UNL     1      28.655 -10.267 -40.439  0.00  0.00    +0.000 A 
ATOM      2  C3  UNL     1      27.509  -9.749 -41.056  0.00  0.00    +0.000 A 
ATOM      3  C4  UNL     1      26.420  -9.279 -40.311  0.00  0.00    +0.000 A 
ATOM      4  O2  UNL     1      25.418  -8.822 -40.925  0.00  0.00    +0.000 OA
ATOM      5  C5  UNL     1      26.463  -9.312 -38.901  0.00  0.00    +0.000 A 
ATOM      6  C6  UNL     1      25.409  -8.896 -38.066  0.00  0.00    +0.000 A 
ATOM      7  C7  UNL     1      25.596  -8.902 -36.654  0.00  0.00    +0.000 A 
ATOM      8  C8  UNL     1      24.670  -8.318 -35.745  0.00  0.00    +0.000 A 
ATOM      9  C10 UNL     1      24.883  -8.458 -34.361  0.00  0.00    +0.000 A 
ATOM     10  C11 UNL     1      26.015  -9.101 -33.871  0.00  0.00    +0.000 A 
ATOM     11  C12 UNL     1      26.985  -9.597 -34.750  0.00  0.00    +0.000 A 
ATOM     12  C14 UNL     1      26.787  -9.485 -36.133  0.00  0.00    +0.000 A 
ATOM     13  O6  UNL     1      27.747  -9.928 -36.936  0.00  0.00    +0.000 OA
ATOM     14  C15 UNL     1      27.673  -9.862 -38.254  0.00  0.00    +0.000 A 
ATOM     15  C16 UNL     1      28.731 -10.322 -39.036  0.00  0.00    +0.000 A 
ENDROOT
BRANCH   1  17
ATOM     16  C1  UNL     1      29.859 -10.359 -42.630  0.00  0.00    +0.000 C 
ATOM     17  O1  UNL     1      29.699 -10.718 -41.262  0.00  0.00    +0.000 OA
ENDBRANCH   1  17
BRANCH   6  18
ATOM     18  O3  UNL     1      24.193  -8.539 -38.658  0.00  0.00    +0.000 OA
ATOM     19  H5  UNL     1      24.125  -8.019 -39.522  0.00  0.00    +0.000 HD
ENDBRANCH   6  18
BRANCH   8  20
ATOM     20  O4  UNL     1      23.586  -7.563 -36.224  0.00  0.00    +0.000 OA
ATOM     21  C9  UNL     1      22.306  -7.483 -35.606  0.00  0.00    +0.000 C 
ENDBRANCH   8  20
BRANCH  11  22
ATOM     22  O5  UNL     1      28.164 -10.209 -34.290  0.00  0.00    +0.000 OA
ATOM     23  C13 UNL     1      29.260  -9.513 -33.705  0.00  0.00    +0.000 C 
ENDBRANCH  11  22
TORSDOF 4
ENDMDL
MODEL 4
REMARK VINA RESULT:    -5.225      1.386      6.870
REMARK INTER + INTRA:          -6.505
REMARK INTER:                  -6.279
REMARK INTRA:                  -0.225
REMARK UNBOUND:                -0.210
REMARK  Name = resultss/4CJN/ligands/lig_294_t1.pdb
REMARK  7 active torsions:
REMARK  status: ('A' for Active; 'I' for Inactive)
REMARK    1  A    between atoms: C1_1  and  O1_2
REMARK    2  A    between atoms: O1_2  and  C2_3
REMARK    3  A    between atoms: C6_8  and  O3_9
REMARK    4  A    between atoms: C8_11  and  O4_12
REMARK    5  A    between atoms: O4_12  and  C9_13
REMARK    6  A    between atoms: C12_16  and  O5_17
REMARK    7  A    between atoms: O5_17  and  C13_18
REMARK                            x       y       z     vdW  Elec       q    Type
REMARK                         _______ _______ _______ _____ _____    ______ ____
ROOT
ATOM      1  C2  UNL     1      25.743  -9.630 -41.543  0.00  0.00    +0.000 A 
ATOM      2  C3  UNL     1      27.058 -10.089 -41.404  0.00  0.00    +0.000 A 
ATOM      3  C4  UNL     1      27.697 -10.129 -40.158  0.00  0.00    +0.000 A 
ATOM      4  O2  UNL     1      28.882 -10.556 -40.098  0.00  0.00    +0.000 OA
ATOM      5  C5  UNL     1      27.012  -9.706 -39.000  0.00  0.00    +0.000 A 
ATOM      6  C6  UNL     1      27.577  -9.675 -37.711  0.00  0.00    +0.000 A 
ATOM      7  C7  UNL     1      26.763  -9.302 -36.604  0.00  0.00    +0.000 A 
ATOM      8  C8  UNL     1      27.185  -9.431 -35.251  0.00  0.00    +0.000 A 
ATOM      9  C10 UNL     1      26.358  -8.943 -34.222  0.00  0.00    +0.000 A 
ATOM     10  C11 UNL     1      25.108  -8.400 -34.503  0.00  0.00    +0.000 A 
ATOM     11  C12 UNL     1      24.636  -8.353 -35.820  0.00  0.00    +0.000 A 
ATOM     12  C14 UNL     1      25.449  -8.815 -36.863  0.00  0.00    +0.000 A 
ATOM     13  O6  UNL     1      24.953  -8.796 -38.095  0.00  0.00    +0.000 OA
ATOM     14  C15 UNL     1      25.624  -9.218 -39.151  0.00  0.00    +0.000 A 
ATOM     15  C16 UNL     1      25.030  -9.193 -40.412  0.00  0.00    +0.000 A 
ENDROOT
BRANCH   1  17
ATOM     16  C1  UNL     1      24.669  -8.464 -43.478  0.00  0.00    +0.000 C 
ATOM     17  O1  UNL     1      25.180  -9.622 -42.829  0.00  0.00    +0.000 OA
ENDBRANCH   1  17
BRANCH   6  18
ATOM     18  O3  UNL     1      28.939  -9.964 -37.575  0.00  0.00    +0.000 OA
ATOM     19  H5  UNL     1      29.667  -9.456 -38.058  0.00  0.00    +0.000 HD
ENDBRANCH   6  18
BRANCH   8  20
ATOM     20  O4  UNL     1      28.389 -10.086 -34.943  0.00  0.00    +0.000 OA
ATOM     21  C9  UNL     1      29.266  -9.733 -33.878  0.00  0.00    +0.000 C 
ENDBRANCH   8  20
BRANCH  11  22
ATOM     22  O5  UNL     1      23.361  -7.854 -36.137  0.00  0.00    +0.000 OA
ATOM     23  C13 UNL     1      22.312  -7.661 -35.193  0.00  0.00    +0.000 C 
ENDBRANCH  11  22
TORSDOF 4
ENDMDL
MODEL 5
REMARK VINA RESULT:    -5.120      3.570      5.643
REMARK INTER + INTRA:          -6.378
REMARK INTER:                  -6.127
REMARK INTRA:                  -0.252
REMARK UNBOUND:                -0.210
REMARK  Name = resultss/4CJN/ligands/lig_294_t1.pdb
REMARK  7 active torsions:
REMARK  status: ('A' for Active; 'I' for Inactive)
REMARK    1  A    between atoms: C1_1  and  O1_2
REMARK    2  A    between atoms: O1_2  and  C2_3
REMARK    3  A    between atoms: C6_8  and  O3_9
REMARK    4  A    between atoms: C8_11  and  O4_12
REMARK    5  A    between atoms: O4_12  and  C9_13
REMARK    6  A    between atoms: C12_16  and  O5_17
REMARK    7  A    between atoms: O5_17  and  C13_18
REMARK                            x       y       z     vdW  Elec       q    Type
REMARK                         _______ _______ _______ _____ _____    ______ ____
ROOT
ATOM      1  C2  UNL     1      28.318 -10.065 -41.609  0.00  0.00    +0.000 A 
ATOM      2  C3  UNL     1      27.295 -10.316 -40.686  0.00  0.00    +0.000 A 
ATOM      3  C4  UNL     1      25.991  -9.846 -40.887  0.00  0.00    +0.000 A 
ATOM      4  O2  UNL     1      25.113 -10.107 -40.020  0.00  0.00    +0.000 OA
ATOM      5  C5  UNL     1      25.679  -9.105 -42.047  0.00  0.00    +0.000 A 
ATOM      6  C6  UNL     1      24.410  -8.561 -42.322  0.00  0.00    +0.000 A 
ATOM      7  C7  UNL     1      24.192  -7.898 -43.563  0.00  0.00    +0.000 A 
ATOM      8  C8  UNL     1      22.904  -7.493 -44.012  0.00  0.00    +0.000 A 
ATOM      9  C10 UNL     1      22.791  -6.753 -45.204  0.00  0.00    +0.000 A 
ATOM     10  C11 UNL     1      23.910  -6.469 -45.980  0.00  0.00    +0.000 A 
ATOM     11  C12 UNL     1      25.173  -6.942 -45.603  0.00  0.00    +0.000 A 
ATOM     12  C14 UNL     1      25.313  -7.666 -44.412  0.00  0.00    +0.000 A 
ATOM     13  O6  UNL     1      26.517  -8.136 -44.107  0.00  0.00    +0.000 OA
ATOM     14  C15 UNL     1      26.762  -8.840 -43.017  0.00  0.00    +0.000 A 
ATOM     15  C16 UNL     1      28.046  -9.325 -42.773  0.00  0.00    +0.000 A 
ENDROOT
BRANCH   1  17
ATOM     16  C1  UNL     1      30.459 -11.164 -42.293  0.00  0.00    +0.000 C 
ATOM     17  O1  UNL     1      29.597 -10.573 -41.328  0.00  0.00    +0.000 OA
ENDBRANCH   1  17
BRANCH   6  18
ATOM     18  O3  UNL     1      23.421  -8.649 -41.337  0.00  0.00    +0.000 OA
ATOM     19  H5  UNL     1      23.358  -9.412 -40.676  0.00  0.00    +0.000 HD
ENDBRANCH   6  18
BRANCH   8  20
ATOM     20  O4  UNL     1      21.753  -7.876 -43.303  0.00  0.00    +0.000 OA
ATOM     21  C9  UNL     1      20.617  -7.049 -43.077  0.00  0.00    +0.000 C 
ENDBRANCH   8  20
BRANCH  11  22
ATOM     22  O5  UNL     1      26.318  -6.715 -46.386  0.00  0.00    +0.000 OA
ATOM     23  C13 UNL     1      26.440  -7.070 -47.760  0.00  0.00    +0.000 C 
ENDBRANCH  11  22
TORSDOF 4
ENDMDL
MODEL 6
REMARK VINA RESULT:    -4.855      2.407      6.518
REMARK INTER + INTRA:          -6.058
REMARK INTER:                  -5.840
REMARK INTRA:                  -0.218
REMARK UNBOUND:                -0.210
REMARK  Name = resultss/4CJN/ligands/lig_294_t1.pdb
REMARK  7 active torsions:
REMARK  status: ('A' for Active; 'I' for Inactive)
REMARK    1  A    between atoms: C1_1  and  O1_2
REMARK    2  A    between atoms: O1_2  and  C2_3
REMARK    3  A    between atoms: C6_8  and  O3_9
REMARK    4  A    between atoms: C8_11  and  O4_12
REMARK    5  A    between atoms: O4_12  and  C9_13
REMARK    6  A    between atoms: C12_16  and  O5_17
REMARK    7  A    between atoms: O5_17  and  C13_18
REMARK                            x       y       z     vdW  Elec       q    Type
REMARK                         _______ _______ _______ _____ _____    ______ ____
ROOT
ATOM      1  C2  UNL     1      30.062  -9.963 -40.421  0.00  0.00    +0.000 A 
ATOM      2  C3  UNL     1      28.662  -9.999 -40.390  0.00  0.00    +0.000 A 
ATOM      3  C4  UNL     1      27.950  -9.951 -39.185  0.00  0.00    +0.000 A 
ATOM      4  O2  UNL     1      26.690  -9.984 -39.224  0.00  0.00    +0.000 OA
ATOM      5  C5  UNL     1      28.643  -9.856 -37.960  0.00  0.00    +0.000 A 
ATOM      6  C6  UNL     1      28.021  -9.836 -36.697  0.00  0.00    +0.000 A 
ATOM      7  C7  UNL     1      28.820  -9.659 -35.531  0.00  0.00    +0.000 A 
ATOM      8  C8  UNL     1      28.269  -9.429 -34.240  0.00  0.00    +0.000 A 
ATOM      9  C10 UNL     1      29.127  -9.366 -33.126  0.00  0.00    +0.000 A 
ATOM     10  C11 UNL     1      30.507  -9.459 -33.278  0.00  0.00    +0.000 A 
ATOM     11  C12 UNL     1      31.073  -9.589 -34.553  0.00  0.00    +0.000 A 
ATOM     12  C14 UNL     1      30.237  -9.672 -35.674  0.00  0.00    +0.000 A 
ATOM     13  O6  UNL     1      30.808  -9.752 -36.871  0.00  0.00    +0.000 OA
ATOM     14  C15 UNL     1      30.121  -9.822 -37.996  0.00  0.00    +0.000 A 
ATOM     15  C16 UNL     1      30.787  -9.876 -39.219  0.00  0.00    +0.000 A 
ENDROOT
BRANCH   1  17
ATOM     16  C1  UNL     1      30.041  -9.787 -42.916  0.00  0.00    +0.000 C 
ATOM     17  O1  UNL     1      30.694 -10.018 -41.673  0.00  0.00    +0.000 OA
ENDBRANCH   1  17
BRANCH   6  18
ATOM     18  O3  UNL     1      26.640 -10.045 -36.633  0.00  0.00    +0.000 OA
ATOM     19  H5  UNL     1      25.958  -9.342 -36.884  0.00  0.00    +0.000 HD
ENDBRANCH   6  18
BRANCH   8  20
ATOM     20  O4  UNL     1      26.889  -9.213 -34.086  0.00  0.00    +0.000 OA
ATOM     21  C9  UNL     1      26.303  -8.233 -33.235  0.00  0.00    +0.000 C 
ENDBRANCH   8  20
BRANCH  11  22
ATOM     22  O5  UNL     1      32.463  -9.639 -34.749  0.00  0.00    +0.000 OA
ATOM     23  C13 UNL     1      33.430  -9.557 -33.705  0.00  0.00    +0.000 C 
ENDBRANCH  11  22
TORSDOF 4
ENDMDL
MODEL 7
REMARK VINA RESULT:    -4.685      1.961      6.192
REMARK INTER + INTRA:          -5.854
REMARK INTER:                  -5.625
REMARK INTRA:                  -0.230
REMARK UNBOUND:                -0.210
REMARK  Name = resultss/4CJN/ligands/lig_294_t1.pdb
REMARK  7 active torsions:
REMARK  status: ('A' for Active; 'I' for Inactive)
REMARK    1  A    between atoms: C1_1  and  O1_2
REMARK    2  A    between atoms: O1_2  and  C2_3
REMARK    3  A    between atoms: C6_8  and  O3_9
REMARK    4  A    between atoms: C8_11  and  O4_12
REMARK    5  A    between atoms: O4_12  and  C9_13
REMARK    6  A    between atoms: C12_16  and  O5_17
REMARK    7  A    between atoms: O5_17  and  C13_18
REMARK                            x       y       z     vdW  Elec       q    Type
REMARK                         _______ _______ _______ _____ _____    ______ ____
ROOT
ATOM      1  C2  UNL     1      24.245  -7.827 -43.912  0.00  0.00    +0.000 A 
ATOM      2  C3  UNL     1      23.431  -7.080 -43.053  0.00  0.00    +0.000 A 
ATOM      3  C4  UNL     1      23.593  -7.122 -41.662  0.00  0.00    +0.000 A 
ATOM      4  O2  UNL     1      22.829  -6.423 -40.941  0.00  0.00    +0.000 OA
ATOM      5  C5  UNL     1      24.602  -7.928 -41.094  0.00  0.00    +0.000 A 
ATOM      6  C6  UNL     1      24.822  -8.064 -39.711  0.00  0.00    +0.000 A 
ATOM      7  C7  UNL     1      25.922  -8.845 -39.255  0.00  0.00    +0.000 A 
ATOM      8  C8  UNL     1      26.340  -8.880 -37.895  0.00  0.00    +0.000 A 
ATOM      9  C10 UNL     1      27.373  -9.758 -37.515  0.00  0.00    +0.000 A 
ATOM     10  C11 UNL     1      28.033 -10.540 -38.457  0.00  0.00    +0.000 A 
ATOM     11  C12 UNL     1      27.700 -10.447 -39.814  0.00  0.00    +0.000 A 
ATOM     12  C14 UNL     1      26.663  -9.594 -40.215  0.00  0.00    +0.000 A 
ATOM     13  O6  UNL     1      26.403  -9.499 -41.513  0.00  0.00    +0.000 OA
ATOM     14  C15 UNL     1      25.458  -8.718 -42.005  0.00  0.00    +0.000 A 
ATOM     15  C16 UNL     1      25.257  -8.647 -43.382  0.00  0.00    +0.000 A 
ENDROOT
BRANCH   1  17
ATOM     16  C1  UNL     1      22.943  -6.990 -45.878  0.00  0.00    +0.000 C 
ATOM     17  O1  UNL     1      24.012  -7.727 -45.293  0.00  0.00    +0.000 OA
ENDBRANCH   1  17
BRANCH   6  18
ATOM     18  O3  UNL     1      23.915  -7.465 -38.830  0.00  0.00    +0.000 OA
ATOM     19  H5  UNL     1      23.924  -7.620 -37.831  0.00  0.00    +0.000 HD
ENDBRANCH   6  18
BRANCH   8  20
ATOM     20  O4  UNL     1      25.766  -8.010 -36.954  0.00  0.00    +0.000 OA
ATOM     21  C9  UNL     1      25.235  -8.401 -35.692  0.00  0.00    +0.000 C 
ENDBRANCH   8  20
BRANCH  11  22
ATOM     22  O5  UNL     1      28.377 -11.186 -40.799  0.00  0.00    +0.000 OA
ATOM     23  C13 UNL     1      29.607 -10.794 -41.401  0.00  0.00    +0.000 C 
ENDBRANCH  11  22
TORSDOF 4
ENDMDL
MODEL 8
REMARK VINA RESULT:    -4.667      6.693     11.375
REMARK INTER + INTRA:          -5.832
REMARK INTER:                  -5.608
REMARK INTRA:                  -0.224
REMARK UNBOUND:                -0.210
REMARK  Name = resultss/4CJN/ligands/lig_294_t1.pdb
REMARK  7 active torsions:
REMARK  status: ('A' for Active; 'I' for Inactive)
REMARK    1  A    between atoms: C1_1  and  O1_2
REMARK    2  A    between atoms: O1_2  and  C2_3
REMARK    3  A    between atoms: C6_8  and  O3_9
REMARK    4  A    between atoms: C8_11  and  O4_12
REMARK    5  A    between atoms: O4_12  and  C9_13
REMARK    6  A    between atoms: C12_16  and  O5_17
REMARK    7  A    between atoms: O5_17  and  C13_18
REMARK                            x       y       z     vdW  Elec       q    Type
REMARK                         _______ _______ _______ _____ _____    ______ ____
ROOT
ATOM      1  C2  UNL     1      17.355  -7.032 -46.417  0.00  0.00    +0.000 A 
ATOM      2  C3  UNL     1      17.772  -7.035 -47.754  0.00  0.00    +0.000 A 
ATOM      3  C4  UNL     1      19.129  -7.040 -48.102  0.00  0.00    +0.000 A 
ATOM      4  O2  UNL     1      19.441  -7.045 -49.324  0.00  0.00    +0.000 OA
ATOM      5  C5  UNL     1      20.116  -7.050 -47.093  0.00  0.00    +0.000 A 
ATOM      6  C6  UNL     1      21.501  -7.021 -47.340  0.00  0.00    +0.000 A 
ATOM      7  C7  UNL     1      22.405  -7.114 -46.243  0.00  0.00    +0.000 A 
ATOM      8  C8  UNL     1      23.807  -7.291 -46.404  0.00  0.00    +0.000 A 
ATOM      9  C10 UNL     1      24.639  -7.271 -45.269  0.00  0.00    +0.000 A 
ATOM     10  C11 UNL     1      24.105  -7.146 -43.991  0.00  0.00    +0.000 A 
ATOM     11  C12 UNL     1      22.719  -7.067 -43.806  0.00  0.00    +0.000 A 
ATOM     12  C14 UNL     1      21.872  -7.068 -44.922  0.00  0.00    +0.000 A 
ATOM     13  O6  UNL     1      20.562  -7.035 -44.709  0.00  0.00    +0.000 OA
ATOM     14  C15 UNL     1      19.671  -7.044 -45.683  0.00  0.00    +0.000 A 
ATOM     15  C16 UNL     1      18.309  -7.035 -45.385  0.00  0.00    +0.000 A 
ENDROOT
BRANCH   1  17
ATOM     16  C1  UNL     1      14.967  -6.973 -47.163  0.00  0.00    +0.000 C 
ATOM     17  O1  UNL     1      15.975  -7.025 -46.159  0.00  0.00    +0.000 OA
ENDBRANCH   1  17
BRANCH   6  18
ATOM     18  O3  UNL     1      21.939  -6.850 -48.657  0.00  0.00    +0.000 OA
ATOM     19  H5  UNL     1      22.824  -6.426 -48.899  0.00  0.00    +0.000 HD
ENDBRANCH   6  18
BRANCH   8  20
ATOM     20  O4  UNL     1      24.349  -7.539 -47.677  0.00  0.00    +0.000 OA
ATOM     21  C9  UNL     1      25.418  -6.808 -48.269  0.00  0.00    +0.000 C 
ENDBRANCH   8  20
BRANCH  11  22
ATOM     22  O5  UNL     1      22.142  -6.988 -42.527  0.00  0.00    +0.000 OA
ATOM     23  C13 UNL     1      22.833  -6.577 -41.352  0.00  0.00    +0.000 C 
ENDBRANCH  11  22
TORSDOF 4
ENDMDL
MODEL 9
REMARK VINA RESULT:    -4.570      4.463      7.235
REMARK INTER + INTRA:          -5.716
REMARK INTER:                  -5.481
REMARK INTRA:                  -0.234
REMARK UNBOUND:                -0.210
REMARK  Name = resultss/4CJN/ligands/lig_294_t1.pdb
REMARK  7 active torsions:
REMARK  status: ('A' for Active; 'I' for Inactive)
REMARK    1  A    between atoms: C1_1  and  O1_2
REMARK    2  A    between atoms: O1_2  and  C2_3
REMARK    3  A    between atoms: C6_8  and  O3_9
REMARK    4  A    between atoms: C8_11  and  O4_12
REMARK    5  A    between atoms: O4_12  and  C9_13
REMARK    6  A    between atoms: C12_16  and  O5_17
REMARK    7  A    between atoms: O5_17  and  C13_18
REMARK                            x       y       z     vdW  Elec       q    Type
REMARK                         _______ _______ _______ _____ _____    ______ ____
ROOT
ATOM      1  C2  UNL     1      27.098  -8.699 -42.461  0.00  0.00    +0.000 A 
ATOM      2  C3  UNL     1      25.877  -9.007 -41.849  0.00  0.00    +0.000 A 
ATOM      3  C4  UNL     1      24.651  -8.706 -42.457  0.00  0.00    +0.000 A 
ATOM      4  O2  UNL     1      23.586  -9.011 -41.856  0.00  0.00    +0.000 OA
ATOM      5  C5  UNL     1      24.626  -8.082 -43.722  0.00  0.00    +0.000 A 
ATOM      6  C6  UNL     1      23.450  -7.709 -44.398  0.00  0.00    +0.000 A 
ATOM      7  C7  UNL     1      23.545  -7.156 -45.707  0.00  0.00    +0.000 A 
ATOM      8  C8  UNL     1      22.414  -6.934 -46.541  0.00  0.00    +0.000 A 
ATOM      9  C10 UNL     1      22.588  -6.289 -47.781  0.00  0.00    +0.000 A 
ATOM     10  C11 UNL     1      23.854  -5.927 -48.229  0.00  0.00    +0.000 A 
ATOM     11  C12 UNL     1      24.989  -6.225 -47.464  0.00  0.00    +0.000 A 
ATOM     12  C14 UNL     1      24.839  -6.849 -46.219  0.00  0.00    +0.000 A 
ATOM     13  O6  UNL     1      25.939  -7.155 -45.540  0.00  0.00    +0.000 OA
ATOM     14  C15 UNL     1      25.917  -7.756 -44.364  0.00  0.00    +0.000 A 
ATOM     15  C16 UNL     1      27.112  -8.071 -43.719  0.00  0.00    +0.000 A 
ENDROOT
BRANCH   1  17
ATOM     16  C1  UNL     1      29.426  -9.613 -42.393  0.00  0.00    +0.000 C 
ATOM     17  O1  UNL     1      28.279  -9.034 -41.780  0.00  0.00    +0.000 OA
ENDBRANCH   1  17
BRANCH   6  18
ATOM     18  O3  UNL     1      22.227  -7.849 -43.733  0.00  0.00    +0.000 OA
ATOM     19  H5  UNL     1      21.487  -8.460 -44.050  0.00  0.00    +0.000 HD
ENDBRANCH   6  18
BRANCH   8  20
ATOM     20  O4  UNL     1      21.146  -7.402 -46.156  0.00  0.00    +0.000 OA
ATOM     21  C9  UNL     1      19.907  -6.800 -46.515  0.00  0.00    +0.000 C 
ENDBRANCH   8  20
BRANCH  11  22
ATOM     22  O5  UNL     1      26.287  -5.916 -47.906  0.00  0.00    +0.000 OA
ATOM     23  C13 UNL     1      26.764  -6.143 -49.228  0.00  0.00    +0.000 C 
ENDBRANCH  11  22
TORSDOF 4
ENDMDL
