MODEL 1
REMARK VINA RESULT:    -7.178      0.000      0.000
REMARK INTER + INTRA:         -10.142
REMARK INTER:                  -9.906
REMARK INTRA:                  -0.236
REMARK UNBOUND:                -0.236
REMARK  Name = resultss/4CJN/ligands/lig_438_t1.pdb
REMARK  9 active torsions:
REMARK  status: ('A' for Active; 'I' for Inactive)
REMARK    1  A    between atoms: C1_1  and  O1_2
REMARK    2  A    between atoms: O1_2  and  C2_3
REMARK    3  A    between atoms: C5_6  and  O2_7
REMARK    4  A    between atoms: O2_7  and  C6_8
REMARK    5  A    between atoms: C7_9  and  N1_10
REMARK    6  A    between atoms: C8_11  and  S1_12
REMARK    7  A    between atoms: N2_13  and  N3_14
REMARK    8  A    between atoms: C9_15  and  C10_17
REMARK    9  A    between atoms: C20_28  and  C21_29
REMARK                            x       y       z     vdW  Elec       q    Type
REMARK                         _______ _______ _______ _____ _____    ______ ____
ROOT
ATOM      1  N3  UNL     1      23.115  -8.039 -41.507  0.00  0.00    +0.000 N 
ATOM      2  C9  UNL     1      23.888  -7.372 -40.497  0.00  0.00    +0.000 C 
ATOM      3  O3  UNL     1      23.558  -6.215 -40.119  0.00  0.00    +0.000 OA
ATOM      4  H11 UNL     1      23.148  -9.082 -41.560  0.00  0.00    +0.000 HD
ENDROOT
BRANCH   2   5
ATOM      5  C10 UNL     1      25.053  -8.043 -39.882  0.00  0.00    +0.000 A 
ATOM      6  C11 UNL     1      25.131  -8.221 -38.485  0.00  0.00    +0.000 A 
ATOM      7  C12 UNL     1      26.270  -8.841 -37.985  0.00  0.00    +0.000 A 
ATOM      8  C13 UNL     1      27.288  -9.274 -38.807  0.00  0.00    +0.000 A 
ATOM      9  N4  UNL     1      28.317  -9.784 -38.089  0.00  0.00    +0.000 N 
ATOM     10  C14 UNL     1      27.924  -9.682 -36.801  0.00  0.00    +0.000 A 
ATOM     11  C15 UNL     1      28.643 -10.061 -35.668  0.00  0.00    +0.000 A 
ATOM     12  C16 UNL     1      28.053  -9.845 -34.409  0.00  0.00    +0.000 A 
ATOM     13  C17 UNL     1      26.773  -9.253 -34.308  0.00  0.00    +0.000 A 
ATOM     14  C18 UNL     1      26.068  -8.874 -35.465  0.00  0.00    +0.000 A 
ATOM     15  C19 UNL     1      26.674  -9.108 -36.698  0.00  0.00    +0.000 A 
ATOM     16  C20 UNL     1      27.193  -9.105 -40.195  0.00  0.00    +0.000 A 
ATOM     17  N5  UNL     1      26.077  -8.482 -40.682  0.00  0.00    +0.000 NA
ATOM     18  H13 UNL     1      29.233 -10.146 -38.437  0.00  0.00    +0.000 HD
BRANCH  16  19
ATOM     19  C21 UNL     1      28.237  -9.561 -41.134  0.00  0.00    +0.000 A 
ATOM     20  C22 UNL     1      28.851 -10.817 -40.982  0.00  0.00    +0.000 A 
ATOM     21  C23 UNL     1      29.818 -11.246 -41.897  0.00  0.00    +0.000 A 
ATOM     22  C24 UNL     1      30.171 -10.431 -42.976  0.00  0.00    +0.000 A 
ATOM     23  C25 UNL     1      29.552  -9.191 -43.147  0.00  0.00    +0.000 A 
ATOM     24  C26 UNL     1      28.582  -8.759 -42.236  0.00  0.00    +0.000 A 
ENDBRANCH  16  19
ENDBRANCH   2   5
BRANCH   1  27
ATOM     25  N1  UNL     1      23.447  -7.440 -44.272  0.00  0.00    +0.000 NA
ATOM     26  C8  UNL     1      22.376  -7.023 -43.661  0.00  0.00    +0.000 C 
ATOM     27  N2  UNL     1      22.155  -7.368 -42.286  0.00  0.00    +0.000 N 
ATOM     28  H10 UNL     1      21.189  -7.266 -41.905  0.00  0.00    +0.000 HD
BRANCH  25  33
ATOM     29  C2  UNL     1      22.998  -6.993 -47.949  0.00  0.00    +0.000 A 
ATOM     30  C3  UNL     1      24.309  -6.674 -48.346  0.00  0.00    +0.000 A 
ATOM     31  C4  UNL     1      25.333  -6.594 -47.400  0.00  0.00    +0.000 A 
ATOM     32  C5  UNL     1      25.070  -6.841 -46.040  0.00  0.00    +0.000 A 
ATOM     33  C7  UNL     1      23.765  -7.197 -45.649  0.00  0.00    +0.000 A 
ATOM     34  C27 UNL     1      22.738  -7.245 -46.598  0.00  0.00    +0.000 A 
BRANCH  29  36
ATOM     35  C1  UNL     1      20.614  -6.609 -48.591  0.00  0.00    +0.000 C 
ATOM     36  O1  UNL     1      21.933  -7.071 -48.858  0.00  0.00    +0.000 OA
ENDBRANCH  29  36
BRANCH  32  37
ATOM     37  O2  UNL     1      26.066  -6.730 -45.056  0.00  0.00    +0.000 OA
ATOM     38  C6  UNL     1      27.453  -6.955 -45.283  0.00  0.00    +0.000 C 
ENDBRANCH  32  37
ENDBRANCH  25  33
BRANCH  26  39
ATOM     39  S1  UNL     1      21.157  -5.993 -44.492  0.00  0.00    +0.000 S 
ATOM     40  H9  UNL     1      22.156  -5.218 -45.109  0.00  0.00    +0.000 HD
ENDBRANCH  26  39
ENDBRANCH   1  27
TORSDOF 7
ENDMDL
MODEL 2
REMARK VINA RESULT:    -7.157      3.301      9.179
REMARK INTER + INTRA:         -10.114
REMARK INTER:                  -9.254
REMARK INTRA:                  -0.860
REMARK UNBOUND:                -0.236
REMARK  Name = resultss/4CJN/ligands/lig_438_t1.pdb
REMARK  9 active torsions:
REMARK  status: ('A' for Active; 'I' for Inactive)
REMARK    1  A    between atoms: C1_1  and  O1_2
REMARK    2  A    between atoms: O1_2  and  C2_3
REMARK    3  A    between atoms: C5_6  and  O2_7
REMARK    4  A    between atoms: O2_7  and  C6_8
REMARK    5  A    between atoms: C7_9  and  N1_10
REMARK    6  A    between atoms: C8_11  and  S1_12
REMARK    7  A    between atoms: N2_13  and  N3_14
REMARK    8  A    between atoms: C9_15  and  C10_17
REMARK    9  A    between atoms: C20_28  and  C21_29
REMARK                            x       y       z     vdW  Elec       q    Type
REMARK                         _______ _______ _______ _____ _____    ______ ____
ROOT
ATOM      1  N3  UNL     1      24.813  -7.200 -39.268  0.00  0.00    +0.000 N 
ATOM      2  C9  UNL     1      25.044  -8.326 -40.129  0.00  0.00    +0.000 C 
ATOM      3  O3  UNL     1      24.450  -9.417 -39.907  0.00  0.00    +0.000 OA
ATOM      4  H11 UNL     1      24.995  -6.240 -39.635  0.00  0.00    +0.000 HD
ENDROOT
BRANCH   2   5
ATOM      5  C10 UNL     1      25.956  -8.207 -41.286  0.00  0.00    +0.000 A 
ATOM      6  C11 UNL     1      25.528  -7.598 -42.485  0.00  0.00    +0.000 A 
ATOM      7  C12 UNL     1      26.439  -7.547 -43.533  0.00  0.00    +0.000 A 
ATOM      8  C13 UNL     1      27.714  -8.060 -43.421  0.00  0.00    +0.000 A 
ATOM      9  N4  UNL     1      28.392  -7.953 -44.589  0.00  0.00    +0.000 N 
ATOM     10  C14 UNL     1      27.530  -7.348 -45.435  0.00  0.00    +0.000 A 
ATOM     11  C15 UNL     1      27.751  -7.024 -46.773  0.00  0.00    +0.000 A 
ATOM     12  C16 UNL     1      26.703  -6.412 -47.485  0.00  0.00    +0.000 A 
ATOM     13  C17 UNL     1      25.466  -6.147 -46.855  0.00  0.00    +0.000 A 
ATOM     14  C18 UNL     1      25.263  -6.487 -45.505  0.00  0.00    +0.000 A 
ATOM     15  C19 UNL     1      26.322  -7.084 -44.823  0.00  0.00    +0.000 A 
ATOM     16  C20 UNL     1      28.132  -8.649 -42.221  0.00  0.00    +0.000 A 
ATOM     17  N5  UNL     1      27.229  -8.711 -41.196  0.00  0.00    +0.000 NA
ATOM     18  H13 UNL     1      29.354  -8.292 -44.813  0.00  0.00    +0.000 HD
BRANCH  16  19
ATOM     19  C21 UNL     1      29.488  -9.202 -42.026  0.00  0.00    +0.000 A 
ATOM     20  C22 UNL     1      30.357  -8.667 -41.058  0.00  0.00    +0.000 A 
ATOM     21  C23 UNL     1      31.627  -9.220 -40.867  0.00  0.00    +0.000 A 
ATOM     22  C24 UNL     1      32.035 -10.318 -41.630  0.00  0.00    +0.000 A 
ATOM     23  C25 UNL     1      31.171 -10.869 -42.579  0.00  0.00    +0.000 A 
ATOM     24  C26 UNL     1      29.899 -10.320 -42.773  0.00  0.00    +0.000 A 
ENDBRANCH  16  19
ENDBRANCH   2   5
BRANCH   1  27
ATOM     25  N1  UNL     1      26.118  -7.858 -36.823  0.00  0.00    +0.000 NA
ATOM     26  C8  UNL     1      24.823  -7.717 -36.829  0.00  0.00    +0.000 C 
ATOM     27  N2  UNL     1      24.151  -7.321 -38.033  0.00  0.00    +0.000 N 
ATOM     28  H10 UNL     1      23.178  -6.951 -37.951  0.00  0.00    +0.000 HD
BRANCH  25  33
ATOM     29  C2  UNL     1      27.796  -7.590 -33.502  0.00  0.00    +0.000 A 
ATOM     30  C3  UNL     1      28.394  -8.858 -33.396  0.00  0.00    +0.000 A 
ATOM     31  C4  UNL     1      28.232  -9.802 -34.413  0.00  0.00    +0.000 A 
ATOM     32  C5  UNL     1      27.476  -9.493 -35.560  0.00  0.00    +0.000 A 
ATOM     33  C7  UNL     1      26.909  -8.211 -35.682  0.00  0.00    +0.000 A 
ATOM     34  C27 UNL     1      27.051  -7.282 -34.645  0.00  0.00    +0.000 A 
BRANCH  29  36
ATOM     35  C1  UNL     1      29.105  -6.365 -31.761  0.00  0.00    +0.000 C 
ATOM     36  O1  UNL     1      27.916  -6.615 -32.502  0.00  0.00    +0.000 OA
ENDBRANCH  29  36
BRANCH  32  37
ATOM     37  O2  UNL     1      27.258 -10.431 -36.583  0.00  0.00    +0.000 OA
ATOM     38  C6  UNL     1      27.988 -10.478 -37.804  0.00  0.00    +0.000 C 
ENDBRANCH  32  37
ENDBRANCH  25  33
BRANCH  26  39
ATOM     39  S1  UNL     1      23.834  -8.027 -35.358  0.00  0.00    +0.000 S 
ATOM     40  H9  UNL     1      24.890  -8.713 -34.730  0.00  0.00    +0.000 HD
ENDBRANCH  26  39
ENDBRANCH   1  27
TORSDOF 7
ENDMDL
MODEL 3
REMARK VINA RESULT:    -7.115      1.597      2.125
REMARK INTER + INTRA:         -10.054
REMARK INTER:                 -10.118
REMARK INTRA:                   0.064
REMARK UNBOUND:                -0.236
REMARK  Name = resultss/4CJN/ligands/lig_438_t1.pdb
REMARK  9 active torsions:
REMARK  status: ('A' for Active; 'I' for Inactive)
REMARK    1  A    between atoms: C1_1  and  O1_2
REMARK    2  A    between atoms: O1_2  and  C2_3
REMARK    3  A    between atoms: C5_6  and  O2_7
REMARK    4  A    between atoms: O2_7  and  C6_8
REMARK    5  A    between atoms: C7_9  and  N1_10
REMARK    6  A    between atoms: C8_11  and  S1_12
REMARK    7  A    between atoms: N2_13  and  N3_14
REMARK    8  A    between atoms: C9_15  and  C10_17
REMARK    9  A    between atoms: C20_28  and  C21_29
REMARK                            x       y       z     vdW  Elec       q    Type
REMARK                         _______ _______ _______ _____ _____    ______ ____
ROOT
ATOM      1  N3  UNL     1      25.084  -8.083 -41.819  0.00  0.00    +0.000 N 
ATOM      2  C9  UNL     1      25.568  -9.425 -41.655  0.00  0.00    +0.000 C 
ATOM      3  O3  UNL     1      24.952 -10.384 -42.195  0.00  0.00    +0.000 OA
ATOM      4  H11 UNL     1      25.752  -7.289 -41.700  0.00  0.00    +0.000 HD
ENDROOT
BRANCH   2   5
ATOM      5  C10 UNL     1      26.797  -9.686 -40.875  0.00  0.00    +0.000 A 
ATOM      6  C11 UNL     1      26.806  -9.543 -39.471  0.00  0.00    +0.000 A 
ATOM      7  C12 UNL     1      28.007  -9.784 -38.815  0.00  0.00    +0.000 A 
ATOM      8  C13 UNL     1      29.149 -10.155 -39.491  0.00  0.00    +0.000 A 
ATOM      9  N4  UNL     1      30.204 -10.269 -38.650  0.00  0.00    +0.000 N 
ATOM     10  C14 UNL     1      29.704  -9.983 -37.428  0.00  0.00    +0.000 A 
ATOM     11  C15 UNL     1      30.400  -9.950 -36.220  0.00  0.00    +0.000 A 
ATOM     12  C16 UNL     1      29.687  -9.603 -35.057  0.00  0.00    +0.000 A 
ATOM     13  C17 UNL     1      28.310  -9.291 -35.126  0.00  0.00    +0.000 A 
ATOM     14  C18 UNL     1      27.630  -9.325 -36.357  0.00  0.00    +0.000 A 
ATOM     15  C19 UNL     1      28.360  -9.680 -37.489  0.00  0.00    +0.000 A 
ATOM     16  C20 UNL     1      29.124 -10.308 -40.884  0.00  0.00    +0.000 A 
ATOM     17  N5  UNL     1      27.945 -10.055 -41.528  0.00  0.00    +0.000 NA
ATOM     18  H13 UNL     1      31.197 -10.492 -38.882  0.00  0.00    +0.000 HD
BRANCH  16  19
ATOM     19  C21 UNL     1      30.306 -10.719 -41.669  0.00  0.00    +0.000 A 
ATOM     20  C22 UNL     1      31.516 -10.007 -41.585  0.00  0.00    +0.000 A 
ATOM     21  C23 UNL     1      32.633 -10.425 -42.313  0.00  0.00    +0.000 A 
ATOM     22  C24 UNL     1      32.557 -11.564 -43.120  0.00  0.00    +0.000 A 
ATOM     23  C25 UNL     1      31.366 -12.290 -43.194  0.00  0.00    +0.000 A 
ATOM     24  C26 UNL     1      30.246 -11.875 -42.465  0.00  0.00    +0.000 A 
ENDBRANCH  16  19
ENDBRANCH   2   5
BRANCH   1  27
ATOM     25  N1  UNL     1      24.593  -7.423 -44.546  0.00  0.00    +0.000 NA
ATOM     26  C8  UNL     1      23.599  -7.409 -43.705  0.00  0.00    +0.000 C 
ATOM     27  N2  UNL     1      23.809  -7.801 -42.342  0.00  0.00    +0.000 N 
ATOM     28  H10 UNL     1      22.972  -8.047 -41.768  0.00  0.00    +0.000 HD
BRANCH  25  33
ATOM     29  C2  UNL     1      23.149  -6.926 -47.950  0.00  0.00    +0.000 A 
ATOM     30  C3  UNL     1      24.257  -6.407 -48.643  0.00  0.00    +0.000 A 
ATOM     31  C4  UNL     1      25.473  -6.210 -47.983  0.00  0.00    +0.000 A 
ATOM     32  C5  UNL     1      25.607  -6.537 -46.621  0.00  0.00    +0.000 A 
ATOM     33  C7  UNL     1      24.508  -7.091 -45.938  0.00  0.00    +0.000 A 
ATOM     34  C27 UNL     1      23.285  -7.257 -46.598  0.00  0.00    +0.000 A 
BRANCH  29  36
ATOM     35  C1  UNL     1      20.654  -7.054 -47.887  0.00  0.00    +0.000 C 
ATOM     36  O1  UNL     1      21.904  -7.127 -48.563  0.00  0.00    +0.000 OA
ENDBRANCH  29  36
BRANCH  32  37
ATOM     37  O2  UNL     1      26.801  -6.314 -45.915  0.00  0.00    +0.000 OA
ATOM     38  C6  UNL     1      27.955  -7.143 -46.000  0.00  0.00    +0.000 C 
ENDBRANCH  32  37
ENDBRANCH  25  33
BRANCH  26  39
ATOM     39  S1  UNL     1      21.951  -6.885 -44.201  0.00  0.00    +0.000 S 
ATOM     40  H9  UNL     1      21.897  -5.915 -43.183  0.00  0.00    +0.000 HD
ENDBRANCH  26  39
ENDBRANCH   1  27
TORSDOF 7
ENDMDL
MODEL 4
REMARK VINA RESULT:    -7.066      3.699      9.967
REMARK INTER + INTRA:          -9.988
REMARK INTER:                  -9.074
REMARK INTRA:                  -0.914
REMARK UNBOUND:                -0.236
REMARK  Name = resultss/4CJN/ligands/lig_438_t1.pdb
REMARK  9 active torsions:
REMARK  status: ('A' for Active; 'I' for Inactive)
REMARK    1  A    between atoms: C1_1  and  O1_2
REMARK    2  A    between atoms: O1_2  and  C2_3
REMARK    3  A    between atoms: C5_6  and  O2_7
REMARK    4  A    between atoms: O2_7  and  C6_8
REMARK    5  A    between atoms: C7_9  and  N1_10
REMARK    6  A    between atoms: C8_11  and  S1_12
REMARK    7  A    between atoms: N2_13  and  N3_14
REMARK    8  A    between atoms: C9_15  and  C10_17
REMARK    9  A    between atoms: C20_28  and  C21_29
REMARK                            x       y       z     vdW  Elec       q    Type
REMARK                         _______ _______ _______ _____ _____    ______ ____
ROOT
ATOM      1  N3  UNL     1      26.411  -8.625 -38.298  0.00  0.00    +0.000 N 
ATOM      2  C9  UNL     1      25.812  -8.902 -39.573  0.00  0.00    +0.000 C 
ATOM      3  O3  UNL     1      24.626  -9.327 -39.629  0.00  0.00    +0.000 OA
ATOM      4  H11 UNL     1      27.213  -7.957 -38.253  0.00  0.00    +0.000 HD
ENDROOT
BRANCH   2   5
ATOM      5  C10 UNL     1      26.570  -8.670 -40.821  0.00  0.00    +0.000 A 
ATOM      6  C11 UNL     1      25.989  -7.972 -41.902  0.00  0.00    +0.000 A 
ATOM      7  C12 UNL     1      26.761  -7.819 -43.047  0.00  0.00    +0.000 A 
ATOM      8  C13 UNL     1      28.043  -8.315 -43.139  0.00  0.00    +0.000 A 
ATOM      9  N4  UNL     1      28.567  -8.100 -44.369  0.00  0.00    +0.000 N 
ATOM     10  C14 UNL     1      27.601  -7.443 -45.046  0.00  0.00    +0.000 A 
ATOM     11  C15 UNL     1      27.648  -7.005 -46.369  0.00  0.00    +0.000 A 
ATOM     12  C16 UNL     1      26.514  -6.356 -46.891  0.00  0.00    +0.000 A 
ATOM     13  C17 UNL     1      25.365  -6.166 -46.091  0.00  0.00    +0.000 A 
ATOM     14  C18 UNL     1      25.337  -6.620 -44.760  0.00  0.00    +0.000 A 
ATOM     15  C19 UNL     1      26.477  -7.252 -44.268  0.00  0.00    +0.000 A 
ATOM     16  C20 UNL     1      28.614  -8.994 -42.054  0.00  0.00    +0.000 A 
ATOM     17  N5  UNL     1      27.848  -9.157 -40.933  0.00  0.00    +0.000 NA
ATOM     18  H13 UNL     1      29.496  -8.401 -44.739  0.00  0.00    +0.000 HD
BRANCH  16  19
ATOM     19  C21 UNL     1      29.988  -9.536 -42.078  0.00  0.00    +0.000 A 
ATOM     20  C22 UNL     1      30.942  -9.136 -41.125  0.00  0.00    +0.000 A 
ATOM     21  C23 UNL     1      32.229  -9.680 -41.144  0.00  0.00    +0.000 A 
ATOM     22  C24 UNL     1      32.572 -10.635 -42.105  0.00  0.00    +0.000 A 
ATOM     23  C25 UNL     1      31.626 -11.053 -43.043  0.00  0.00    +0.000 A 
ATOM     24  C26 UNL     1      30.335 -10.513 -43.027  0.00  0.00    +0.000 A 
ENDBRANCH  16  19
ENDBRANCH   2   5
BRANCH   1  27
ATOM     25  N1  UNL     1      27.775  -8.621 -35.797  0.00  0.00    +0.000 NA
ATOM     26  C8  UNL     1      26.563  -9.093 -35.854  0.00  0.00    +0.000 C 
ATOM     27  N2  UNL     1      25.832  -9.046 -37.087  0.00  0.00    +0.000 N 
ATOM     28  H10 UNL     1      24.796  -9.167 -37.048  0.00  0.00    +0.000 HD
BRANCH  25  33
ATOM     29  C2  UNL     1      30.287  -9.634 -33.232  0.00  0.00    +0.000 A 
ATOM     30  C3  UNL     1      30.264  -8.521 -32.373  0.00  0.00    +0.000 A 
ATOM     31  C4  UNL     1      29.430  -7.435 -32.649  0.00  0.00    +0.000 A 
ATOM     32  C5  UNL     1      28.597  -7.444 -33.783  0.00  0.00    +0.000 A 
ATOM     33  C7  UNL     1      28.594  -8.575 -34.622  0.00  0.00    +0.000 A 
ATOM     34  C27 UNL     1      29.454  -9.646 -34.356  0.00  0.00    +0.000 A 
BRANCH  29  36
ATOM     35  C1  UNL     1      32.115 -10.807 -31.994  0.00  0.00    +0.000 C 
ATOM     36  O1  UNL     1      31.117 -10.742 -33.007  0.00  0.00    +0.000 OA
ENDBRANCH  29  36
BRANCH  32  37
ATOM     37  O2  UNL     1      27.777  -6.353 -34.114  0.00  0.00    +0.000 OA
ATOM     38  C6  UNL     1      26.528  -6.064 -33.494  0.00  0.00    +0.000 C 
ENDBRANCH  32  37
ENDBRANCH  25  33
BRANCH  26  39
ATOM     39  S1  UNL     1      25.772  -9.835 -34.418  0.00  0.00    +0.000 S 
ATOM     40  H9  UNL     1      25.144 -10.817 -35.206  0.00  0.00    +0.000 HD
ENDBRANCH  26  39
ENDBRANCH   1  27
TORSDOF 7
ENDMDL
MODEL 5
REMARK VINA RESULT:    -6.912      5.303      8.130
REMARK INTER + INTRA:          -9.774
REMARK INTER:                  -9.030
REMARK INTRA:                  -0.745
REMARK UNBOUND:                -0.236
REMARK  Name = resultss/4CJN/ligands/lig_438_t1.pdb
REMARK  9 active torsions:
REMARK  status: ('A' for Active; 'I' for Inactive)
REMARK    1  A    between atoms: C1_1  and  O1_2
REMARK    2  A    between atoms: O1_2  and  C2_3
REMARK    3  A    between atoms: C5_6  and  O2_7
REMARK    4  A    between atoms: O2_7  and  C6_8
REMARK    5  A    between atoms: C7_9  and  N1_10
REMARK    6  A    between atoms: C8_11  and  S1_12
REMARK    7  A    between atoms: N2_13  and  N3_14
REMARK    8  A    between atoms: C9_15  and  C10_17
REMARK    9  A    between atoms: C20_28  and  C21_29
REMARK                            x       y       z     vdW  Elec       q    Type
REMARK                         _______ _______ _______ _____ _____    ______ ____
ROOT
ATOM      1  N3  UNL     1      28.388  -9.428 -39.591  0.00  0.00    +0.000 N 
ATOM      2  C9  UNL     1      27.348  -8.943 -38.727  0.00  0.00    +0.000 C 
ATOM      3  O3  UNL     1      26.245  -8.579 -39.217  0.00  0.00    +0.000 OA
ATOM      4  H11 UNL     1      29.127 -10.049 -39.191  0.00  0.00    +0.000 HD
ENDROOT
BRANCH   2   5
ATOM      5  C10 UNL     1      27.557  -8.890 -37.264  0.00  0.00    +0.000 A 
ATOM      6  C11 UNL     1      28.831  -9.125 -36.706  0.00  0.00    +0.000 A 
ATOM      7  C12 UNL     1      28.937  -9.079 -35.321  0.00  0.00    +0.000 A 
ATOM      8  C13 UNL     1      27.854  -8.812 -34.512  0.00  0.00    +0.000 A 
ATOM      9  N4  UNL     1      28.188  -8.886 -33.201  0.00  0.00    +0.000 N 
ATOM     10  C14 UNL     1      29.505  -9.187 -33.197  0.00  0.00    +0.000 A 
ATOM     11  C15 UNL     1      30.320  -9.385 -32.083  0.00  0.00    +0.000 A 
ATOM     12  C16 UNL     1      31.670  -9.715 -32.304  0.00  0.00    +0.000 A 
ATOM     13  C17 UNL     1      32.171  -9.847 -33.619  0.00  0.00    +0.000 A 
ATOM     14  C18 UNL     1      31.329  -9.648 -34.728  0.00  0.00    +0.000 A 
ATOM     15  C19 UNL     1      29.999  -9.313 -34.479  0.00  0.00    +0.000 A 
ATOM     16  C20 UNL     1      26.596  -8.566 -35.078  0.00  0.00    +0.000 A 
ATOM     17  N5  UNL     1      26.491  -8.626 -36.441  0.00  0.00    +0.000 NA
ATOM     18  H13 UNL     1      27.569  -8.775 -32.368  0.00  0.00    +0.000 HD
BRANCH  16  19
ATOM     19  C21 UNL     1      25.398  -8.256 -34.272  0.00  0.00    +0.000 A 
ATOM     20  C22 UNL     1      24.670  -9.276 -33.632  0.00  0.00    +0.000 A 
ATOM     21  C23 UNL     1      23.555  -8.963 -32.850  0.00  0.00    +0.000 A 
ATOM     22  C24 UNL     1      23.164  -7.631 -32.689  0.00  0.00    +0.000 A 
ATOM     23  C25 UNL     1      23.892  -6.610 -33.303  0.00  0.00    +0.000 A 
ATOM     24  C26 UNL     1      25.010  -6.918 -34.086  0.00  0.00    +0.000 A 
ENDBRANCH  16  19
ENDBRANCH   2   5
BRANCH   1  27
ATOM     25  N1  UNL     1      30.396 -10.387 -41.368  0.00  0.00    +0.000 NA
ATOM     26  C8  UNL     1      29.392  -9.715 -41.855  0.00  0.00    +0.000 C 
ATOM     27  N2  UNL     1      28.336  -9.279 -40.988  0.00  0.00    +0.000 N 
ATOM     28  H10 UNL     1      27.430  -8.996 -41.424  0.00  0.00    +0.000 HD
BRANCH  25  33
ATOM     29  C2  UNL     1      32.270 -12.413 -43.879  0.00  0.00    +0.000 A 
ATOM     30  C3  UNL     1      33.579 -11.932 -43.695  0.00  0.00    +0.000 A 
ATOM     31  C4  UNL     1      33.837 -10.934 -42.753  0.00  0.00    +0.000 A 
ATOM     32  C5  UNL     1      32.795 -10.402 -41.971  0.00  0.00    +0.000 A 
ATOM     33  C7  UNL     1      31.492 -10.910 -42.131  0.00  0.00    +0.000 A 
ATOM     34  C27 UNL     1      31.236 -11.889 -43.097  0.00  0.00    +0.000 A 
BRANCH  29  36
ATOM     35  C1  UNL     1      32.806 -13.785 -45.898  0.00  0.00    +0.000 C 
ATOM     36  O1  UNL     1      31.957 -13.403 -44.821  0.00  0.00    +0.000 OA
ENDBRANCH  29  36
BRANCH  32  37
ATOM     37  O2  UNL     1      33.010  -9.368 -41.045  0.00  0.00    +0.000 OA
ATOM     38  C6  UNL     1      33.642  -9.537 -39.780  0.00  0.00    +0.000 C 
ENDBRANCH  32  37
ENDBRANCH  25  33
BRANCH  26  39
ATOM     39  S1  UNL     1      29.298  -9.293 -43.601  0.00  0.00    +0.000 S 
ATOM     40  H9  UNL     1      30.699  -9.289 -43.729  0.00  0.00    +0.000 HD
ENDBRANCH  26  39
ENDBRANCH   1  27
TORSDOF 7
ENDMDL
MODEL 6
REMARK VINA RESULT:    -6.899      3.679      6.658
REMARK INTER + INTRA:          -9.757
REMARK INTER:                  -9.067
REMARK INTRA:                  -0.690
REMARK UNBOUND:                -0.236
REMARK  Name = resultss/4CJN/ligands/lig_438_t1.pdb
REMARK  9 active torsions:
REMARK  status: ('A' for Active; 'I' for Inactive)
REMARK    1  A    between atoms: C1_1  and  O1_2
REMARK    2  A    between atoms: O1_2  and  C2_3
REMARK    3  A    between atoms: C5_6  and  O2_7
REMARK    4  A    between atoms: O2_7  and  C6_8
REMARK    5  A    between atoms: C7_9  and  N1_10
REMARK    6  A    between atoms: C8_11  and  S1_12
REMARK    7  A    between atoms: N2_13  and  N3_14
REMARK    8  A    between atoms: C9_15  and  C10_17
REMARK    9  A    between atoms: C20_28  and  C21_29
REMARK                            x       y       z     vdW  Elec       q    Type
REMARK                         _______ _______ _______ _____ _____    ______ ____
ROOT
ATOM      1  N3  UNL     1      29.615 -10.001 -38.618  0.00  0.00    +0.000 N 
ATOM      2  C9  UNL     1      28.363 -10.357 -38.011  0.00  0.00    +0.000 C 
ATOM      3  O3  UNL     1      27.646 -11.253 -38.534  0.00  0.00    +0.000 OA
ATOM      4  H11 UNL     1      30.352  -9.554 -38.028  0.00  0.00    +0.000 HD
ENDROOT
BRANCH   2   5
ATOM      5  C10 UNL     1      27.920  -9.693 -36.766  0.00  0.00    +0.000 A 
ATOM      6  C11 UNL     1      26.566  -9.348 -36.573  0.00  0.00    +0.000 A 
ATOM      7  C12 UNL     1      26.238  -8.705 -35.385  0.00  0.00    +0.000 A 
ATOM      8  C13 UNL     1      27.181  -8.415 -34.424  0.00  0.00    +0.000 A 
ATOM      9  N4  UNL     1      26.637  -7.731 -33.389  0.00  0.00    +0.000 N 
ATOM     10  C14 UNL     1      25.329  -7.611 -33.706  0.00  0.00    +0.000 A 
ATOM     11  C15 UNL     1      24.338  -6.970 -32.962  0.00  0.00    +0.000 A 
ATOM     12  C16 UNL     1      23.034  -6.940 -33.489  0.00  0.00    +0.000 A 
ATOM     13  C17 UNL     1      22.750  -7.537 -34.738  0.00  0.00    +0.000 A 
ATOM     14  C18 UNL     1      23.767  -8.174 -35.473  0.00  0.00    +0.000 A 
ATOM     15  C19 UNL     1      25.046  -8.195 -34.923  0.00  0.00    +0.000 A 
ATOM     16  C20 UNL     1      28.521  -8.776 -34.621  0.00  0.00    +0.000 A 
ATOM     17  N5  UNL     1      28.844  -9.395 -35.797  0.00  0.00    +0.000 NA
ATOM     18  H13 UNL     1      27.114  -7.344 -32.545  0.00  0.00    +0.000 HD
BRANCH  16  19
ATOM     19  C21 UNL     1      29.580  -8.512 -33.626  0.00  0.00    +0.000 A 
ATOM     20  C22 UNL     1      30.314  -9.565 -33.051  0.00  0.00    +0.000 A 
ATOM     21  C23 UNL     1      31.332  -9.297 -32.132  0.00  0.00    +0.000 A 
ATOM     22  C24 UNL     1      31.635  -7.976 -31.788  0.00  0.00    +0.000 A 
ATOM     23  C25 UNL     1      30.925  -6.923 -32.369  0.00  0.00    +0.000 A 
ATOM     24  C26 UNL     1      29.907  -7.187 -33.291  0.00  0.00    +0.000 A 
ENDBRANCH  16  19
ENDBRANCH   2   5
BRANCH   1  27
ATOM     25  N1  UNL     1      28.385  -9.033 -40.998  0.00  0.00    +0.000 NA
ATOM     26  C8  UNL     1      29.290  -9.965 -41.090  0.00  0.00    +0.000 C 
ATOM     27  N2  UNL     1      29.970 -10.421 -39.912  0.00  0.00    +0.000 N 
ATOM     28  H10 UNL     1      30.862 -10.951 -40.036  0.00  0.00    +0.000 HD
BRANCH  25  33
ATOM     29  C2  UNL     1      27.685  -7.076 -44.096  0.00  0.00    +0.000 A 
ATOM     30  C3  UNL     1      26.326  -7.372 -44.304  0.00  0.00    +0.000 A 
ATOM     31  C4  UNL     1      25.648  -8.225 -43.430  0.00  0.00    +0.000 A 
ATOM     32  C5  UNL     1      26.313  -8.792 -42.326  0.00  0.00    +0.000 A 
ATOM     33  C7  UNL     1      27.663  -8.466 -42.099  0.00  0.00    +0.000 A 
ATOM     34  C27 UNL     1      28.343  -7.634 -42.995  0.00  0.00    +0.000 A 
BRANCH  29  36
ATOM     35  C1  UNL     1      28.097  -6.018 -46.323  0.00  0.00    +0.000 C 
ATOM     36  O1  UNL     1      28.413  -6.237 -44.952  0.00  0.00    +0.000 OA
ENDBRANCH  29  36
BRANCH  32  37
ATOM     37  O2  UNL     1      25.675  -9.687 -41.452  0.00  0.00    +0.000 OA
ATOM     38  C6  UNL     1      24.743  -9.305 -40.446  0.00  0.00    +0.000 C 
ENDBRANCH  32  37
ENDBRANCH  25  33
BRANCH  26  39
ATOM     39  S1  UNL     1      29.705 -10.724 -42.667  0.00  0.00    +0.000 S 
ATOM     40  H9  UNL     1      30.715  -9.777 -42.916  0.00  0.00    +0.000 HD
ENDBRANCH  26  39
ENDBRANCH   1  27
TORSDOF 7
ENDMDL
MODEL 7
REMARK VINA RESULT:    -6.730      4.844     10.451
REMARK INTER + INTRA:          -9.523
REMARK INTER:                  -8.734
REMARK INTRA:                  -0.789
REMARK UNBOUND:                -0.236
REMARK  Name = resultss/4CJN/ligands/lig_438_t1.pdb
REMARK  9 active torsions:
REMARK  status: ('A' for Active; 'I' for Inactive)
REMARK    1  A    between atoms: C1_1  and  O1_2
REMARK    2  A    between atoms: O1_2  and  C2_3
REMARK    3  A    between atoms: C5_6  and  O2_7
REMARK    4  A    between atoms: O2_7  and  C6_8
REMARK    5  A    between atoms: C7_9  and  N1_10
REMARK    6  A    between atoms: C8_11  and  S1_12
REMARK    7  A    between atoms: N2_13  and  N3_14
REMARK    8  A    between atoms: C9_15  and  C10_17
REMARK    9  A    between atoms: C20_28  and  C21_29
REMARK                            x       y       z     vdW  Elec       q    Type
REMARK                         _______ _______ _______ _____ _____    ______ ____
ROOT
ATOM      1  N3  UNL     1      26.708  -7.576 -35.810  0.00  0.00    +0.000 N 
ATOM      2  C9  UNL     1      26.455  -8.813 -36.496  0.00  0.00    +0.000 C 
ATOM      3  O3  UNL     1      26.104  -9.831 -35.841  0.00  0.00    +0.000 OA
ATOM      4  H11 UNL     1      26.639  -6.681 -36.344  0.00  0.00    +0.000 HD
ENDROOT
BRANCH   2   5
ATOM      5  C10 UNL     1      26.584  -8.891 -37.966  0.00  0.00    +0.000 A 
ATOM      6  C11 UNL     1      27.770  -9.368 -38.564  0.00  0.00    +0.000 A 
ATOM      7  C12 UNL     1      27.819  -9.387 -39.953  0.00  0.00    +0.000 A 
ATOM      8  C13 UNL     1      26.760  -8.968 -40.729  0.00  0.00    +0.000 A 
ATOM      9  N4  UNL     1      27.065  -9.018 -42.047  0.00  0.00    +0.000 N 
ATOM     10  C14 UNL     1      28.329  -9.494 -42.091  0.00  0.00    +0.000 A 
ATOM     11  C15 UNL     1      29.106  -9.717 -43.227  0.00  0.00    +0.000 A 
ATOM     12  C16 UNL     1      30.415 -10.199 -43.047  0.00  0.00    +0.000 A 
ATOM     13  C17 UNL     1      30.919 -10.438 -41.748  0.00  0.00    +0.000 A 
ATOM     14  C18 UNL     1      30.119 -10.201 -40.616  0.00  0.00    +0.000 A 
ATOM     15  C19 UNL     1      28.824  -9.732 -40.826  0.00  0.00    +0.000 A 
ATOM     16  C20 UNL     1      25.582  -8.509 -40.124  0.00  0.00    +0.000 A 
ATOM     17  N5  UNL     1      25.542  -8.478 -38.757  0.00  0.00    +0.000 NA
ATOM     18  H13 UNL     1      26.480  -8.723 -42.860  0.00  0.00    +0.000 HD
BRANCH  16  19
ATOM     19  C21 UNL     1      24.404  -8.062 -40.894  0.00  0.00    +0.000 A 
ATOM     20  C22 UNL     1      23.866  -6.775 -40.714  0.00  0.00    +0.000 A 
ATOM     21  C23 UNL     1      22.768  -6.356 -41.472  0.00  0.00    +0.000 A 
ATOM     22  C24 UNL     1      22.206  -7.213 -42.422  0.00  0.00    +0.000 A 
ATOM     23  C25 UNL     1      22.746  -8.485 -42.623  0.00  0.00    +0.000 A 
ATOM     24  C26 UNL     1      23.846  -8.907 -41.869  0.00  0.00    +0.000 A 
ENDBRANCH  16  19
ENDBRANCH   2   5
BRANCH   1  27
ATOM     25  N1  UNL     1      29.077  -8.264 -34.386  0.00  0.00    +0.000 NA
ATOM     26  C8  UNL     1      28.016  -7.918 -33.715  0.00  0.00    +0.000 C 
ATOM     27  N2  UNL     1      26.832  -7.503 -34.411  0.00  0.00    +0.000 N 
ATOM     28  H10 UNL     1      26.107  -6.977 -33.874  0.00  0.00    +0.000 HD
BRANCH  25  33
ATOM     29  C2  UNL     1      31.674 -10.397 -32.766  0.00  0.00    +0.000 A 
ATOM     30  C3  UNL     1      32.768  -9.515 -32.731  0.00  0.00    +0.000 A 
ATOM     31  C4  UNL     1      32.651  -8.225 -33.254  0.00  0.00    +0.000 A 
ATOM     32  C5  UNL     1      31.435  -7.788 -33.812  0.00  0.00    +0.000 A 
ATOM     33  C7  UNL     1      30.330  -8.660 -33.812  0.00  0.00    +0.000 A 
ATOM     34  C27 UNL     1      30.464  -9.961 -33.315  0.00  0.00    +0.000 A 
BRANCH  29  36
ATOM     35  C1  UNL     1      32.318 -12.059 -31.014  0.00  0.00    +0.000 C 
ATOM     36  O1  UNL     1      31.746 -11.706 -32.268  0.00  0.00    +0.000 OA
ENDBRANCH  29  36
BRANCH  32  37
ATOM     37  O2  UNL     1      31.293  -6.514 -34.384  0.00  0.00    +0.000 OA
ATOM     38  C6  UNL     1      31.663  -6.181 -35.718  0.00  0.00    +0.000 C 
ENDBRANCH  32  37
ENDBRANCH  25  33
BRANCH  26  39
ATOM     39  S1  UNL     1      27.981  -7.963 -31.916  0.00  0.00    +0.000 S 
ATOM     40  H9  UNL     1      27.537  -6.630 -31.840  0.00  0.00    +0.000 HD
ENDBRANCH  26  39
ENDBRANCH   1  27
TORSDOF 7
ENDMDL
MODEL 8
REMARK VINA RESULT:    -6.722      3.429      8.609
REMARK INTER + INTRA:          -9.513
REMARK INTER:                  -9.020
REMARK INTRA:                  -0.493
REMARK UNBOUND:                -0.236
REMARK  Name = resultss/4CJN/ligands/lig_438_t1.pdb
REMARK  9 active torsions:
REMARK  status: ('A' for Active; 'I' for Inactive)
REMARK    1  A    between atoms: C1_1  and  O1_2
REMARK    2  A    between atoms: O1_2  and  C2_3
REMARK    3  A    between atoms: C5_6  and  O2_7
REMARK    4  A    between atoms: O2_7  and  C6_8
REMARK    5  A    between atoms: C7_9  and  N1_10
REMARK    6  A    between atoms: C8_11  and  S1_12
REMARK    7  A    between atoms: N2_13  and  N3_14
REMARK    8  A    between atoms: C9_15  and  C10_17
REMARK    9  A    between atoms: C20_28  and  C21_29
REMARK                            x       y       z     vdW  Elec       q    Type
REMARK                         _______ _______ _______ _____ _____    ______ ____
ROOT
ATOM      1  N3  UNL     1      25.348  -8.422 -40.364  0.00  0.00    +0.000 N 
ATOM      2  C9  UNL     1      24.894  -9.134 -41.527  0.00  0.00    +0.000 C 
ATOM      3  O3  UNL     1      24.994 -10.390 -41.571  0.00  0.00    +0.000 OA
ATOM      4  H11 UNL     1      24.952  -7.476 -40.167  0.00  0.00    +0.000 HD
ENDROOT
BRANCH   2   5
ATOM      5  C10 UNL     1      24.292  -8.403 -42.662  0.00  0.00    +0.000 A 
ATOM      6  C11 UNL     1      22.929  -8.037 -42.645  0.00  0.00    +0.000 A 
ATOM      7  C12 UNL     1      22.435  -7.373 -43.761  0.00  0.00    +0.000 A 
ATOM      8  C13 UNL     1      23.230  -7.071 -44.845  0.00  0.00    +0.000 A 
ATOM      9  N4  UNL     1      22.514  -6.484 -45.834  0.00  0.00    +0.000 N 
ATOM     10  C14 UNL     1      21.256  -6.404 -45.347  0.00  0.00    +0.000 A 
ATOM     11  C15 UNL     1      20.135  -5.885 -45.993  0.00  0.00    +0.000 A 
ATOM     12  C16 UNL     1      18.905  -5.919 -45.310  0.00  0.00    +0.000 A 
ATOM     13  C17 UNL     1      18.820  -6.472 -44.012  0.00  0.00    +0.000 A 
ATOM     14  C18 UNL     1      19.964  -6.994 -43.381  0.00  0.00    +0.000 A 
ATOM     15  C19 UNL     1      21.169  -6.939 -44.079  0.00  0.00    +0.000 A 
ATOM     16  C20 UNL     1      24.586  -7.426 -44.845  0.00  0.00    +0.000 A 
ATOM     17  N5  UNL     1      25.066  -8.093 -43.751  0.00  0.00    +0.000 NA
ATOM     18  H13 UNL     1      22.838  -6.187 -46.780  0.00  0.00    +0.000 HD
BRANCH  16  19
ATOM     19  C21 UNL     1      25.499  -7.118 -45.964  0.00  0.00    +0.000 A 
ATOM     20  C22 UNL     1      25.011  -6.950 -47.272  0.00  0.00    +0.000 A 
ATOM     21  C23 UNL     1      25.884  -6.630 -48.316  0.00  0.00    +0.000 A 
ATOM     22  C24 UNL     1      27.248  -6.465 -48.061  0.00  0.00    +0.000 A 
ATOM     23  C25 UNL     1      27.739  -6.609 -46.762  0.00  0.00    +0.000 A 
ATOM     24  C26 UNL     1      26.869  -6.927 -45.714  0.00  0.00    +0.000 A 
ENDBRANCH  16  19
ENDBRANCH   2   5
BRANCH   1  27
ATOM     25  N1  UNL     1      28.043  -9.254 -40.758  0.00  0.00    +0.000 NA
ATOM     26  C8  UNL     1      27.469  -9.498 -39.615  0.00  0.00    +0.000 C 
ATOM     27  N2  UNL     1      26.135  -9.030 -39.370  0.00  0.00    +0.000 N 
ATOM     28  H10 UNL     1      25.804  -8.990 -38.380  0.00  0.00    +0.000 HD
BRANCH  25  33
ATOM     29  C2  UNL     1      30.858 -11.176 -42.276  0.00  0.00    +0.000 A 
ATOM     30  C3  UNL     1      31.961 -10.394 -41.889  0.00  0.00    +0.000 A 
ATOM     31  C4  UNL     1      31.773  -9.229 -41.142  0.00  0.00    +0.000 A 
ATOM     32  C5  UNL     1      30.479  -8.828 -40.758  0.00  0.00    +0.000 A 
ATOM     33  C7  UNL     1      29.380  -9.632 -41.113  0.00  0.00    +0.000 A 
ATOM     34  C27 UNL     1      29.574 -10.781 -41.888  0.00  0.00    +0.000 A 
BRANCH  29  36
ATOM     35  C1  UNL     1      32.215 -12.789 -43.619  0.00  0.00    +0.000 C 
ATOM     36  O1  UNL     1      30.994 -12.345 -43.038  0.00  0.00    +0.000 OA
ENDBRANCH  29  36
BRANCH  32  37
ATOM     37  O2  UNL     1      30.248  -7.642 -40.042  0.00  0.00    +0.000 OA
ATOM     38  C6  UNL     1      30.707  -7.397 -38.717  0.00  0.00    +0.000 C 
ENDBRANCH  32  37
ENDBRANCH  25  33
BRANCH  26  39
ATOM     39  S1  UNL     1      28.300 -10.434 -38.322  0.00  0.00    +0.000 S 
ATOM     40  H9  UNL     1      29.323  -9.475 -38.214  0.00  0.00    +0.000 HD
ENDBRANCH  26  39
ENDBRANCH   1  27
TORSDOF 7
ENDMDL
MODEL 9
REMARK VINA RESULT:    -6.699      5.804     10.775
REMARK INTER + INTRA:          -9.480
REMARK INTER:                  -8.391
REMARK INTRA:                  -1.089
REMARK UNBOUND:                -0.236
REMARK  Name = resultss/4CJN/ligands/lig_438_t1.pdb
REMARK  9 active torsions:
REMARK  status: ('A' for Active; 'I' for Inactive)
REMARK    1  A    between atoms: C1_1  and  O1_2
REMARK    2  A    between atoms: O1_2  and  C2_3
REMARK    3  A    between atoms: C5_6  and  O2_7
REMARK    4  A    between atoms: O2_7  and  C6_8
REMARK    5  A    between atoms: C7_9  and  N1_10
REMARK    6  A    between atoms: C8_11  and  S1_12
REMARK    7  A    between atoms: N2_13  and  N3_14
REMARK    8  A    between atoms: C9_15  and  C10_17
REMARK    9  A    between atoms: C20_28  and  C21_29
REMARK                            x       y       z     vdW  Elec       q    Type
REMARK                         _______ _______ _______ _____ _____    ______ ____
ROOT
ATOM      1  N3  UNL     1      33.056  -8.781 -38.070  0.00  0.00    +0.000 N 
ATOM      2  C9  UNL     1      32.670  -8.260 -39.352  0.00  0.00    +0.000 C 
ATOM      3  O3  UNL     1      32.829  -7.035 -39.603  0.00  0.00    +0.000 OA
ATOM      4  H11 UNL     1      33.267  -9.801 -37.984  0.00  0.00    +0.000 HD
ENDROOT
BRANCH   2   5
ATOM      5  C10 UNL     1      32.107  -9.157 -40.384  0.00  0.00    +0.000 A 
ATOM      6  C11 UNL     1      32.946  -9.990 -41.154  0.00  0.00    +0.000 A 
ATOM      7  C12 UNL     1      32.339 -10.785 -42.119  0.00  0.00    +0.000 A 
ATOM      8  C13 UNL     1      30.977 -10.776 -42.325  0.00  0.00    +0.000 A 
ATOM      9  N4  UNL     1      30.629 -11.580 -43.358  0.00  0.00    +0.000 N 
ATOM     10  C14 UNL     1      31.795 -12.111 -43.789  0.00  0.00    +0.000 A 
ATOM     11  C15 UNL     1      31.975 -12.998 -44.850  0.00  0.00    +0.000 A 
ATOM     12  C16 UNL     1      33.286 -13.413 -45.148  0.00  0.00    +0.000 A 
ATOM     13  C17 UNL     1      34.380 -12.932 -44.393  0.00  0.00    +0.000 A 
ATOM     14  C18 UNL     1      34.175 -12.033 -43.331  0.00  0.00    +0.000 A 
ATOM     15  C19 UNL     1      32.865 -11.646 -43.054  0.00  0.00    +0.000 A 
ATOM     16  C20 UNL     1      30.152  -9.955 -41.545  0.00  0.00    +0.000 A 
ATOM     17  N5  UNL     1      30.753  -9.163 -40.605  0.00  0.00    +0.000 NA
ATOM     18  H13 UNL     1      29.682 -11.737 -43.767  0.00  0.00    +0.000 HD
BRANCH  16  19
ATOM     19  C21 UNL     1      28.684  -9.909 -41.700  0.00  0.00    +0.000 A 
ATOM     20  C22 UNL     1      27.833 -10.421 -40.704  0.00  0.00    +0.000 A 
ATOM     21  C23 UNL     1      26.445 -10.345 -40.854  0.00  0.00    +0.000 A 
ATOM     22  C24 UNL     1      25.895  -9.746 -41.990  0.00  0.00    +0.000 A 
ATOM     23  C25 UNL     1      26.732  -9.215 -42.975  0.00  0.00    +0.000 A 
ATOM     24  C26 UNL     1      28.121  -9.288 -42.829  0.00  0.00    +0.000 A 
ENDBRANCH  16  19
ENDBRANCH   2   5
BRANCH   1  27
ATOM     25  N1  UNL     1      31.424  -8.510 -35.752  0.00  0.00    +0.000 NA
ATOM     26  C8  UNL     1      32.498  -7.781 -35.856  0.00  0.00    +0.000 C 
ATOM     27  N2  UNL     1      33.370  -7.947 -36.982  0.00  0.00    +0.000 N 
ATOM     28  H10 UNL     1      34.340  -7.567 -36.911  0.00  0.00    +0.000 HD
BRANCH  25  33
ATOM     29  C2  UNL     1      28.461  -7.531 -33.706  0.00  0.00    +0.000 A 
ATOM     30  C3  UNL     1      28.608  -8.378 -32.593  0.00  0.00    +0.000 A 
ATOM     31  C4  UNL     1      29.675  -9.277 -32.525  0.00  0.00    +0.000 A 
ATOM     32  C5  UNL     1      30.621  -9.341 -33.566  0.00  0.00    +0.000 A 
ATOM     33  C7  UNL     1      30.494  -8.468 -34.662  0.00  0.00    +0.000 A 
ATOM     34  C27 UNL     1      29.405  -7.591 -34.736  0.00  0.00    +0.000 A 
BRANCH  29  36
ATOM     35  C1  UNL     1      26.052  -6.992 -34.099  0.00  0.00    +0.000 C 
ATOM     36  O1  UNL     1      27.400  -6.623 -33.827  0.00  0.00    +0.000 OA
ENDBRANCH  29  36
BRANCH  32  37
ATOM     37  O2  UNL     1      31.682 -10.261 -33.551  0.00  0.00    +0.000 OA
ATOM     38  C6  UNL     1      32.847 -10.137 -32.743  0.00  0.00    +0.000 C 
ENDBRANCH  32  37
ENDBRANCH  25  33
BRANCH  26  39
ATOM     39  S1  UNL     1      32.916  -6.538 -34.624  0.00  0.00    +0.000 S 
ATOM     40  H9  UNL     1      31.873  -5.694 -35.046  0.00  0.00    +0.000 HD
ENDBRANCH  26  39
ENDBRANCH   1  27
TORSDOF 7
ENDMDL
