MODEL 1
REMARK VINA RESULT:    -4.051      0.000      0.000
REMARK INTER + INTRA:          -4.975
REMARK INTER:                  -4.762
REMARK INTRA:                  -0.213
REMARK UNBOUND:                -0.213
REMARK  Name = resultss/4CJN/ligands/lig_103_t0.pdb
REMARK  5 active torsions:
REMARK  status: ('A' for Active; 'I' for Inactive)
REMARK    1  A    between atoms: O1_1  and  C1_2
REMARK    2  A    between atoms: C1_2  and  C2_3
REMARK    3  A    between atoms: C4_6  and  O2_7
REMARK    4  A    between atoms: C5_8  and  O3_9
REMARK    5  A    between atoms: C6_10  and  O4_11
REMARK                            x       y       z     vdW  Elec       q    Type
REMARK                         _______ _______ _______ _____ _____    ______ ____
ROOT
ATOM      1  C2  UNL     1      26.970  -8.866 -34.176  0.00  0.00    +0.000 C 
ATOM      2  N1  UNL     1      27.036  -7.395 -34.262  0.00  0.00    +0.000 NA
ATOM      3  C3  UNL     1      26.178  -6.763 -33.248  0.00  0.00    +0.000 C 
ATOM      4  C4  UNL     1      24.703  -7.170 -33.433  0.00  0.00    +0.000 C 
ATOM      5  C5  UNL     1      24.558  -8.706 -33.391  0.00  0.00    +0.000 C 
ATOM      6  C6  UNL     1      25.518  -9.371 -34.402  0.00  0.00    +0.000 C 
ATOM      7  H5  UNL     1      26.715  -7.083 -35.210  0.00  0.00    +0.000 HD
ENDROOT
BRANCH   4   8
ATOM      8  O2  UNL     1      23.894  -6.562 -32.457  0.00  0.00    +0.000 OA
ATOM      9  H9  UNL     1      22.977  -6.932 -32.553  0.00  0.00    +0.000 HD
ENDBRANCH   4   8
BRANCH   5  10
ATOM     10  O3  UNL     1      23.227  -9.089 -33.639  0.00  0.00    +0.000 OA
ATOM     11  H11 UNL     1      22.978  -8.749 -34.538  0.00  0.00    +0.000 HD
ENDBRANCH   5  10
BRANCH   6  12
ATOM     12  O4  UNL     1      25.445 -10.772 -34.302  0.00  0.00    +0.000 OA
ATOM     13  H13 UNL     1      25.306 -11.132 -35.216  0.00  0.00    +0.000 HD
ENDBRANCH   6  12
BRANCH   1  14
ATOM     14  C1  UNL     1      27.959  -9.492 -35.173  0.00  0.00    +0.000 C 
BRANCH  14  15
ATOM     15  O1  UNL     1      27.275 -10.132 -36.216  0.00  0.00    +0.000 OA
ATOM     16  H1  UNL     1      27.964 -10.378 -36.887  0.00  0.00    +0.000 HD
ENDBRANCH  14  15
ENDBRANCH   1  14
TORSDOF 5
ENDMDL
MODEL 2
REMARK VINA RESULT:    -4.008      2.004      2.605
REMARK INTER + INTRA:          -4.924
REMARK INTER:                  -4.692
REMARK INTRA:                  -0.231
REMARK UNBOUND:                -0.213
REMARK  Name = resultss/4CJN/ligands/lig_103_t0.pdb
REMARK  5 active torsions:
REMARK  status: ('A' for Active; 'I' for Inactive)
REMARK    1  A    between atoms: O1_1  and  C1_2
REMARK    2  A    between atoms: C1_2  and  C2_3
REMARK    3  A    between atoms: C4_6  and  O2_7
REMARK    4  A    between atoms: C5_8  and  O3_9
REMARK    5  A    between atoms: C6_10  and  O4_11
REMARK                            x       y       z     vdW  Elec       q    Type
REMARK                         _______ _______ _______ _____ _____    ______ ____
ROOT
ATOM      1  C2  UNL     1      25.319  -8.408 -34.943  0.00  0.00    +0.000 C 
ATOM      2  N1  UNL     1      24.282  -8.446 -35.991  0.00  0.00    +0.000 NA
ATOM      3  C3  UNL     1      23.437  -7.244 -35.947  0.00  0.00    +0.000 C 
ATOM      4  C4  UNL     1      22.718  -7.115 -34.590  0.00  0.00    +0.000 C 
ATOM      5  C5  UNL     1      23.742  -7.106 -33.435  0.00  0.00    +0.000 C 
ATOM      6  C6  UNL     1      24.679  -8.330 -33.530  0.00  0.00    +0.000 C 
ATOM      7  H5  UNL     1      23.670  -9.287 -35.851  0.00  0.00    +0.000 HD
ENDROOT
BRANCH   4   8
ATOM      8  O2  UNL     1      21.915  -5.961 -34.559  0.00  0.00    +0.000 OA
ATOM      9  H9  UNL     1      22.012  -5.551 -33.660  0.00  0.00    +0.000 HD
ENDBRANCH   4   8
BRANCH   5  10
ATOM     10  O3  UNL     1      23.090  -7.070 -32.189  0.00  0.00    +0.000 OA
ATOM     11  H11 UNL     1      23.788  -7.036 -31.484  0.00  0.00    +0.000 HD
ENDBRANCH   5  10
BRANCH   6  12
ATOM     12  O4  UNL     1      25.665  -8.274 -32.528  0.00  0.00    +0.000 OA
ATOM     13  H13 UNL     1      26.050  -7.359 -32.535  0.00  0.00    +0.000 HD
ENDBRANCH   6  12
BRANCH   1  14
ATOM     14  C1  UNL     1      26.250  -9.624 -35.087  0.00  0.00    +0.000 C 
BRANCH  14  15
ATOM     15  O1  UNL     1      25.745 -10.723 -34.380  0.00  0.00    +0.000 OA
ATOM     16  H1  UNL     1      26.185 -11.525 -34.766  0.00  0.00    +0.000 HD
ENDBRANCH  14  15
ENDBRANCH   1  14
TORSDOF 5
ENDMDL
MODEL 3
REMARK VINA RESULT:    -4.001      1.214      3.714
REMARK INTER + INTRA:          -4.916
REMARK INTER:                  -4.670
REMARK INTRA:                  -0.246
REMARK UNBOUND:                -0.213
REMARK  Name = resultss/4CJN/ligands/lig_103_t0.pdb
REMARK  5 active torsions:
REMARK  status: ('A' for Active; 'I' for Inactive)
REMARK    1  A    between atoms: O1_1  and  C1_2
REMARK    2  A    between atoms: C1_2  and  C2_3
REMARK    3  A    between atoms: C4_6  and  O2_7
REMARK    4  A    between atoms: C5_8  and  O3_9
REMARK    5  A    between atoms: C6_10  and  O4_11
REMARK                            x       y       z     vdW  Elec       q    Type
REMARK                         _______ _______ _______ _____ _____    ______ ____
ROOT
ATOM      1  C2  UNL     1      24.857  -7.069 -33.576  0.00  0.00    +0.000 C 
ATOM      2  N1  UNL     1      26.102  -6.818 -32.827  0.00  0.00    +0.000 NA
ATOM      3  C3  UNL     1      27.258  -7.435 -33.496  0.00  0.00    +0.000 C 
ATOM      4  C4  UNL     1      27.087  -8.962 -33.611  0.00  0.00    +0.000 C 
ATOM      5  C5  UNL     1      25.779  -9.305 -34.355  0.00  0.00    +0.000 C 
ATOM      6  C6  UNL     1      24.577  -8.592 -33.697  0.00  0.00    +0.000 C 
ATOM      7  H5  UNL     1      26.021  -7.223 -31.864  0.00  0.00    +0.000 HD
ENDROOT
BRANCH   4   8
ATOM      8  O2  UNL     1      28.197  -9.540 -34.253  0.00  0.00    +0.000 OA
ATOM      9  H9  UNL     1      28.644  -8.826 -34.780  0.00  0.00    +0.000 HD
ENDBRANCH   4   8
BRANCH   5  10
ATOM     10  O3  UNL     1      25.576 -10.696 -34.393  0.00  0.00    +0.000 OA
ATOM     11  H11 UNL     1      25.428 -11.005 -33.462  0.00  0.00    +0.000 HD
ENDBRANCH   5  10
BRANCH   6  12
ATOM     12  O4  UNL     1      23.400  -8.837 -34.427  0.00  0.00    +0.000 OA
ATOM     13  H13 UNL     1      22.639  -8.476 -33.901  0.00  0.00    +0.000 HD
ENDBRANCH   6  12
BRANCH   1  14
ATOM     14  C1  UNL     1      23.689  -6.320 -32.912  0.00  0.00    +0.000 C 
BRANCH  14  15
ATOM     15  O1  UNL     1      22.953  -7.181 -32.086  0.00  0.00    +0.000 OA
ATOM     16  H1  UNL     1      22.073  -6.744 -31.948  0.00  0.00    +0.000 HD
ENDBRANCH  14  15
ENDBRANCH   1  14
TORSDOF 5
ENDMDL
MODEL 4
REMARK VINA RESULT:    -3.689      1.660      3.487
REMARK INTER + INTRA:          -4.549
REMARK INTER:                  -4.326
REMARK INTRA:                  -0.223
REMARK UNBOUND:                -0.213
REMARK  Name = resultss/4CJN/ligands/lig_103_t0.pdb
REMARK  5 active torsions:
REMARK  status: ('A' for Active; 'I' for Inactive)
REMARK    1  A    between atoms: O1_1  and  C1_2
REMARK    2  A    between atoms: C1_2  and  C2_3
REMARK    3  A    between atoms: C4_6  and  O2_7
REMARK    4  A    between atoms: C5_8  and  O3_9
REMARK    5  A    between atoms: C6_10  and  O4_11
REMARK                            x       y       z     vdW  Elec       q    Type
REMARK                         _______ _______ _______ _____ _____    ______ ____
ROOT
ATOM      1  C2  UNL     1      24.830  -8.292 -33.650  0.00  0.00    +0.000 C 
ATOM      2  N1  UNL     1      25.364  -7.156 -32.874  0.00  0.00    +0.000 NA
ATOM      3  C3  UNL     1      26.597  -6.631 -33.479  0.00  0.00    +0.000 C 
ATOM      4  C4  UNL     1      27.696  -7.710 -33.533  0.00  0.00    +0.000 C 
ATOM      5  C5  UNL     1      27.196  -8.952 -34.301  0.00  0.00    +0.000 C 
ATOM      6  C6  UNL     1      25.859  -9.454 -33.712  0.00  0.00    +0.000 C 
ATOM      7  H5  UNL     1      25.580  -7.467 -31.897  0.00  0.00    +0.000 HD
ENDROOT
BRANCH   4   8
ATOM      8  O2  UNL     1      28.869  -7.197 -34.115  0.00  0.00    +0.000 OA
ATOM      9  H9  UNL     1      28.599  -6.511 -34.781  0.00  0.00    +0.000 HD
ENDBRANCH   4   8
BRANCH   5  10
ATOM     10  O3  UNL     1      28.164  -9.973 -34.284  0.00  0.00    +0.000 OA
ATOM     11  H11 UNL     1      28.086 -10.477 -35.136  0.00  0.00    +0.000 HD
ENDBRANCH   5  10
BRANCH   6  12
ATOM     12  O4  UNL     1      25.363 -10.532 -34.467  0.00  0.00    +0.000 OA
ATOM     13  H13 UNL     1      26.142 -11.044 -34.809  0.00  0.00    +0.000 HD
ENDBRANCH   6  12
BRANCH   1  14
ATOM     14  C1  UNL     1      23.486  -8.744 -33.054  0.00  0.00    +0.000 C 
BRANCH  14  15
ATOM     15  O1  UNL     1      22.619  -9.185 -34.063  0.00  0.00    +0.000 OA
ATOM     16  H1  UNL     1      22.979 -10.057 -34.374  0.00  0.00    +0.000 HD
ENDBRANCH  14  15
ENDBRANCH   1  14
TORSDOF 5
ENDMDL
MODEL 5
REMARK VINA RESULT:    -3.530      7.276      8.341
REMARK INTER + INTRA:          -4.362
REMARK INTER:                  -4.130
REMARK INTRA:                  -0.232
REMARK UNBOUND:                -0.213
REMARK  Name = resultss/4CJN/ligands/lig_103_t0.pdb
REMARK  5 active torsions:
REMARK  status: ('A' for Active; 'I' for Inactive)
REMARK    1  A    between atoms: O1_1  and  C1_2
REMARK    2  A    between atoms: C1_2  and  C2_3
REMARK    3  A    between atoms: C4_6  and  O2_7
REMARK    4  A    between atoms: C5_8  and  O3_9
REMARK    5  A    between atoms: C6_10  and  O4_11
REMARK                            x       y       z     vdW  Elec       q    Type
REMARK                         _______ _______ _______ _____ _____    ______ ____
ROOT
ATOM      1  C2  UNL     1      26.558  -9.505 -42.437  0.00  0.00    +0.000 C 
ATOM      2  N1  UNL     1      27.681  -8.550 -42.399  0.00  0.00    +0.000 NA
ATOM      3  C3  UNL     1      28.943  -9.227 -42.065  0.00  0.00    +0.000 C 
ATOM      4  C4  UNL     1      28.866  -9.904 -40.683  0.00  0.00    +0.000 C 
ATOM      5  C5  UNL     1      27.685 -10.896 -40.633  0.00  0.00    +0.000 C 
ATOM      6  C6  UNL     1      26.373 -10.201 -41.061  0.00  0.00    +0.000 C 
ATOM      7  H5  UNL     1      27.496  -7.817 -41.672  0.00  0.00    +0.000 HD
ENDROOT
BRANCH   4   8
ATOM      8  O2  UNL     1      30.078 -10.549 -40.376  0.00  0.00    +0.000 OA
ATOM      9  H9  UNL     1      30.486 -10.071 -39.607  0.00  0.00    +0.000 HD
ENDBRANCH   4   8
BRANCH   5  10
ATOM     10  O3  UNL     1      27.558 -11.458 -39.350  0.00  0.00    +0.000 OA
ATOM     11  H11 UNL     1      26.894 -10.918 -38.848  0.00  0.00    +0.000 HD
ENDBRANCH   5  10
BRANCH   6  12
ATOM     12  O4  UNL     1      25.315 -11.127 -41.097  0.00  0.00    +0.000 OA
ATOM     13  H13 UNL     1      24.793 -11.021 -40.260  0.00  0.00    +0.000 HD
ENDBRANCH   6  12
BRANCH   1  14
ATOM     14  C1  UNL     1      25.278  -8.786 -42.895  0.00  0.00    +0.000 C 
BRANCH  14  15
ATOM     15  O1  UNL     1      24.315  -9.710 -43.323  0.00  0.00    +0.000 OA
ATOM     16  H1  UNL     1      23.445  -9.231 -43.301  0.00  0.00    +0.000 HD
ENDBRANCH  14  15
ENDBRANCH   1  14
TORSDOF 5
ENDMDL
MODEL 6
REMARK VINA RESULT:    -3.484      2.420      2.914
REMARK INTER + INTRA:          -4.308
REMARK INTER:                  -4.089
REMARK INTRA:                  -0.219
REMARK UNBOUND:                -0.213
REMARK  Name = resultss/4CJN/ligands/lig_103_t0.pdb
REMARK  5 active torsions:
REMARK  status: ('A' for Active; 'I' for Inactive)
REMARK    1  A    between atoms: O1_1  and  C1_2
REMARK    2  A    between atoms: C1_2  and  C2_3
REMARK    3  A    between atoms: C4_6  and  O2_7
REMARK    4  A    between atoms: C5_8  and  O3_9
REMARK    5  A    between atoms: C6_10  and  O4_11
REMARK                            x       y       z     vdW  Elec       q    Type
REMARK                         _______ _______ _______ _____ _____    ______ ____
ROOT
ATOM      1  C2  UNL     1      25.617  -7.729 -36.796  0.00  0.00    +0.000 C 
ATOM      2  N1  UNL     1      24.527  -7.003 -36.118  0.00  0.00    +0.000 NA
ATOM      3  C3  UNL     1      24.709  -7.011 -34.659  0.00  0.00    +0.000 C 
ATOM      4  C4  UNL     1      24.720  -8.449 -34.105  0.00  0.00    +0.000 C 
ATOM      5  C5  UNL     1      25.817  -9.286 -34.797  0.00  0.00    +0.000 C 
ATOM      6  C6  UNL     1      25.670  -9.211 -36.333  0.00  0.00    +0.000 C 
ATOM      7  H5  UNL     1      23.609  -7.458 -36.340  0.00  0.00    +0.000 HD
ENDROOT
BRANCH   4   8
ATOM      8  O2  UNL     1      24.897  -8.444 -32.710  0.00  0.00    +0.000 OA
ATOM      9  H9  UNL     1      25.631  -7.808 -32.503  0.00  0.00    +0.000 HD
ENDBRANCH   4   8
BRANCH   5  10
ATOM     10  O3  UNL     1      25.780 -10.621 -34.356  0.00  0.00    +0.000 OA
ATOM     11  H11 UNL     1      24.981 -11.050 -34.759  0.00  0.00    +0.000 HD
ENDBRANCH   5  10
BRANCH   6  12
ATOM     12  O4  UNL     1      26.720  -9.903 -36.963  0.00  0.00    +0.000 OA
ATOM     13  H13 UNL     1      26.319 -10.639 -37.495  0.00  0.00    +0.000 HD
ENDBRANCH   6  12
BRANCH   1  14
ATOM     14  C1  UNL     1      25.456  -7.607 -38.321  0.00  0.00    +0.000 C 
BRANCH  14  15
ATOM     15  O1  UNL     1      24.584  -8.591 -38.808  0.00  0.00    +0.000 OA
ATOM     16  H1  UNL     1      23.741  -8.121 -39.041  0.00  0.00    +0.000 HD
ENDBRANCH  14  15
ENDBRANCH   1  14
TORSDOF 5
ENDMDL
MODEL 7
REMARK VINA RESULT:    -3.413      8.566      9.756
REMARK INTER + INTRA:          -4.225
REMARK INTER:                  -3.984
REMARK INTRA:                  -0.242
REMARK UNBOUND:                -0.213
REMARK  Name = resultss/4CJN/ligands/lig_103_t0.pdb
REMARK  5 active torsions:
REMARK  status: ('A' for Active; 'I' for Inactive)
REMARK    1  A    between atoms: O1_1  and  C1_2
REMARK    2  A    between atoms: C1_2  and  C2_3
REMARK    3  A    between atoms: C4_6  and  O2_7
REMARK    4  A    between atoms: C5_8  and  O3_9
REMARK    5  A    between atoms: C6_10  and  O4_11
REMARK                            x       y       z     vdW  Elec       q    Type
REMARK                         _______ _______ _______ _____ _____    ______ ____
ROOT
ATOM      1  C2  UNL     1      24.228  -7.797 -43.946  0.00  0.00    +0.000 C 
ATOM      2  N1  UNL     1      25.476  -7.028 -43.777  0.00  0.00    +0.000 NA
ATOM      3  C3  UNL     1      26.641  -7.920 -43.686  0.00  0.00    +0.000 C 
ATOM      4  C4  UNL     1      26.521  -8.876 -42.483  0.00  0.00    +0.000 C 
ATOM      5  C5  UNL     1      25.214  -9.692 -42.570  0.00  0.00    +0.000 C 
ATOM      6  C6  UNL     1      23.999  -8.756 -42.745  0.00  0.00    +0.000 C 
ATOM      7  H5  UNL     1      25.423  -6.460 -42.897  0.00  0.00    +0.000 HD
ENDROOT
BRANCH   4   8
ATOM      8  O2  UNL     1      27.640  -9.724 -42.408  0.00  0.00    +0.000 OA
ATOM      9  H9  UNL     1      28.422  -9.222 -42.759  0.00  0.00    +0.000 HD
ENDBRANCH   4   8
BRANCH   5  10
ATOM     10  O3  UNL     1      25.058 -10.508 -41.435  0.00  0.00    +0.000 OA
ATOM     11  H11 UNL     1      25.953 -10.629 -41.024  0.00  0.00    +0.000 HD
ENDBRANCH   5  10
BRANCH   6  12
ATOM     12  O4  UNL     1      22.820  -9.505 -42.910  0.00  0.00    +0.000 OA
ATOM     13  H13 UNL     1      23.083 -10.430 -43.157  0.00  0.00    +0.000 HD
ENDBRANCH   6  12
BRANCH   1  14
ATOM     14  C1  UNL     1      23.046  -6.834 -44.147  0.00  0.00    +0.000 C 
BRANCH  14  15
ATOM     15  O1  UNL     1      22.019  -7.453 -44.873  0.00  0.00    +0.000 OA
ATOM     16  H1  UNL     1      22.024  -7.031 -45.771  0.00  0.00    +0.000 HD
ENDBRANCH  14  15
ENDBRANCH   1  14
TORSDOF 5
ENDMDL
MODEL 8
REMARK VINA RESULT:    -3.413      7.147      8.201
REMARK INTER + INTRA:          -4.224
REMARK INTER:                  -3.978
REMARK INTRA:                  -0.247
REMARK UNBOUND:                -0.213
REMARK  Name = resultss/4CJN/ligands/lig_103_t0.pdb
REMARK  5 active torsions:
REMARK  status: ('A' for Active; 'I' for Inactive)
REMARK    1  A    between atoms: O1_1  and  C1_2
REMARK    2  A    between atoms: C1_2  and  C2_3
REMARK    3  A    between atoms: C4_6  and  O2_7
REMARK    4  A    between atoms: C5_8  and  O3_9
REMARK    5  A    between atoms: C6_10  and  O4_11
REMARK                            x       y       z     vdW  Elec       q    Type
REMARK                         _______ _______ _______ _____ _____    ______ ____
ROOT
ATOM      1  C2  UNL     1      25.966  -8.124 -40.819  0.00  0.00    +0.000 C 
ATOM      2  N1  UNL     1      26.814  -7.788 -41.978  0.00  0.00    +0.000 NA
ATOM      3  C3  UNL     1      26.001  -7.350 -43.123  0.00  0.00    +0.000 C 
ATOM      4  C4  UNL     1      25.023  -8.454 -43.570  0.00  0.00    +0.000 C 
ATOM      5  C5  UNL     1      24.122  -8.886 -42.394  0.00  0.00    +0.000 C 
ATOM      6  C6  UNL     1      24.978  -9.271 -41.167  0.00  0.00    +0.000 C 
ATOM      7  H5  UNL     1      27.365  -8.632 -42.267  0.00  0.00    +0.000 HD
ENDROOT
BRANCH   4   8
ATOM      8  O2  UNL     1      24.251  -8.022 -44.663  0.00  0.00    +0.000 OA
ATOM      9  H9  UNL     1      23.583  -8.731 -44.858  0.00  0.00    +0.000 HD
ENDBRANCH   4   8
BRANCH   5  10
ATOM     10  O3  UNL     1      23.283  -9.950 -42.772  0.00  0.00    +0.000 OA
ATOM     11  H11 UNL     1      22.546 -10.004 -42.109  0.00  0.00    +0.000 HD
ENDBRANCH   5  10
BRANCH   6  12
ATOM     12  O4  UNL     1      24.153  -9.582 -40.070  0.00  0.00    +0.000 OA
ATOM     13  H13 UNL     1      23.515 -10.284 -40.363  0.00  0.00    +0.000 HD
ENDBRANCH   6  12
BRANCH   1  14
ATOM     14  C1  UNL     1      26.850  -8.472 -39.610  0.00  0.00    +0.000 C 
BRANCH  14  15
ATOM     15  O1  UNL     1      27.014  -9.859 -39.497  0.00  0.00    +0.000 OA
ATOM     16  H1  UNL     1      27.992 -10.017 -39.441  0.00  0.00    +0.000 HD
ENDBRANCH  14  15
ENDBRANCH   1  14
TORSDOF 5
ENDMDL
MODEL 9
REMARK VINA RESULT:    -3.325      6.167      7.669
REMARK INTER + INTRA:          -4.122
REMARK INTER:                  -3.875
REMARK INTRA:                  -0.247
REMARK UNBOUND:                -0.213
REMARK  Name = resultss/4CJN/ligands/lig_103_t0.pdb
REMARK  5 active torsions:
REMARK  status: ('A' for Active; 'I' for Inactive)
REMARK    1  A    between atoms: O1_1  and  C1_2
REMARK    2  A    between atoms: C1_2  and  C2_3
REMARK    3  A    between atoms: C4_6  and  O2_7
REMARK    4  A    between atoms: C5_8  and  O3_9
REMARK    5  A    between atoms: C6_10  and  O4_11
REMARK                            x       y       z     vdW  Elec       q    Type
REMARK                         _______ _______ _______ _____ _____    ______ ____
ROOT
ATOM      1  C2  UNL     1      24.668  -8.699 -41.336  0.00  0.00    +0.000 C 
ATOM      2  N1  UNL     1      24.273  -9.092 -39.970  0.00  0.00    +0.000 NA
ATOM      3  C3  UNL     1      25.338  -8.789 -39.001  0.00  0.00    +0.000 C 
ATOM      4  C4  UNL     1      26.636  -9.547 -39.343  0.00  0.00    +0.000 C 
ATOM      5  C5  UNL     1      27.094  -9.213 -40.778  0.00  0.00    +0.000 C 
ATOM      6  C6  UNL     1      25.948  -9.458 -41.785  0.00  0.00    +0.000 C 
ATOM      7  H5  UNL     1      24.082 -10.122 -39.941  0.00  0.00    +0.000 HD
ENDROOT
BRANCH   4   8
ATOM      8  O2  UNL     1      27.646  -9.248 -38.411  0.00  0.00    +0.000 OA
ATOM      9  H9  UNL     1      28.436  -8.922 -38.917  0.00  0.00    +0.000 HD
ENDBRANCH   4   8
BRANCH   5  10
ATOM     10  O3  UNL     1      28.232  -9.963 -41.126  0.00  0.00    +0.000 OA
ATOM     11  H11 UNL     1      28.863  -9.355 -41.593  0.00  0.00    +0.000 HD
ENDBRANCH   5  10
BRANCH   6  12
ATOM     12  O4  UNL     1      26.339  -9.073 -43.079  0.00  0.00    +0.000 OA
ATOM     13  H13 UNL     1      26.509  -9.900 -43.601  0.00  0.00    +0.000 HD
ENDBRANCH   6  12
BRANCH   1  14
ATOM     14  C1  UNL     1      23.495  -8.927 -42.303  0.00  0.00    +0.000 C 
BRANCH  14  15
ATOM     15  O1  UNL     1      23.616 -10.166 -42.948  0.00  0.00    +0.000 OA
ATOM     16  H1  UNL     1      22.943 -10.163 -43.678  0.00  0.00    +0.000 HD
ENDBRANCH  14  15
ENDBRANCH   1  14
TORSDOF 5
ENDMDL
