MODEL 1
REMARK VINA RESULT:    -7.005      0.000      0.000
REMARK INTER + INTRA:         -10.418
REMARK INTER:                  -9.257
REMARK INTRA:                  -1.160
REMARK UNBOUND:                -1.160
REMARK  Name = resultss/4CJN/ligands/lig_241_t0.pdb
REMARK  7 active torsions:
REMARK  status: ('A' for Active; 'I' for Inactive)
REMARK    1  A    between atoms: C1_1  and  O1_2
REMARK    2  A    between atoms: O1_2  and  C2_3
REMARK    3  A    between atoms: C5_6  and  C6_7
REMARK    4  A    between atoms: N1_12  and  C9_13
REMARK    5  A    between atoms: C13_18  and  C14_19
REMARK    6  A    between atoms: C14_19  and  C15_20
REMARK    7  A    between atoms: C18_23  and  O3_24
REMARK                            x       y       z     vdW  Elec       q    Type
REMARK                         _______ _______ _______ _____ _____    ______ ____
ROOT
ATOM      1  C9  UNL     1      30.172  -8.756 -36.453  0.00  0.00    +0.000 A 
ATOM      2  C10 UNL     1      29.438  -7.605 -36.787  0.00  0.00    +0.000 A 
ATOM      3  C11 UNL     1      28.987  -7.406 -38.095  0.00  0.00    +0.000 A 
ATOM      4  C12 UNL     1      29.275  -8.349 -39.085  0.00  0.00    +0.000 A 
ATOM      5  N2  UNL     1      28.845  -8.161 -40.360  0.00  0.00    +0.000 NA
ATOM      6  C13 UNL     1      29.126  -9.058 -41.344  0.00  0.00    +0.000 A 
ATOM      7  C21 UNL     1      29.863 -10.214 -41.026  0.00  0.00    +0.000 A 
ATOM      8  O4  UNL     1      30.129 -11.072 -41.912  0.00  0.00    +0.000 OA
ATOM      9  N3  UNL     1      30.295 -10.407 -39.749  0.00  0.00    +0.000 N 
ATOM     10  C22 UNL     1      30.018  -9.502 -38.767  0.00  0.00    +0.000 A 
ATOM     11  C23 UNL     1      30.465  -9.700 -37.452  0.00  0.00    +0.000 A 
ATOM     12  H18 UNL     1      30.846 -11.268 -39.523  0.00  0.00    +0.000 HD
ENDROOT
BRANCH   1  18
ATOM     13  C6  UNL     1      30.001  -9.778 -34.125  0.00  0.00    +0.000 C 
ATOM     14  S1  UNL     1      30.873  -9.612 -32.522  0.00  0.00    +0.000 S 
ATOM     15  C7  UNL     1      32.168  -8.524 -33.199  0.00  0.00    +0.000 C 
ATOM     16  C8  UNL     1      31.850  -8.307 -34.626  0.00  0.00    +0.000 C 
ATOM     17  O2  UNL     1      32.602  -7.625 -35.370  0.00  0.00    +0.000 OA
ATOM     18  N1  UNL     1      30.673  -8.939 -35.114  0.00  0.00    +0.000 N 
BRANCH  13  22
ATOM     19  C2  UNL     1      25.863  -8.577 -33.701  0.00  0.00    +0.000 A 
ATOM     20  C3  UNL     1      26.876  -7.875 -33.037  0.00  0.00    +0.000 A 
ATOM     21  C4  UNL     1      28.211  -8.268 -33.162  0.00  0.00    +0.000 A 
ATOM     22  C5  UNL     1      28.555  -9.369 -33.965  0.00  0.00    +0.000 A 
ATOM     23  C24 UNL     1      27.541 -10.076 -34.628  0.00  0.00    +0.000 A 
ATOM     24  C25 UNL     1      26.205  -9.686 -34.498  0.00  0.00    +0.000 A 
BRANCH  19  26
ATOM     25  C1  UNL     1      23.512  -8.908 -32.919  0.00  0.00    +0.000 C 
ATOM     26  O1  UNL     1      24.540  -8.143 -33.542  0.00  0.00    +0.000 OA
ENDBRANCH  19  26
ENDBRANCH  13  22
ENDBRANCH   1  18
BRANCH   6  27
ATOM     27  C14 UNL     1      28.591  -8.813 -42.728  0.00  0.00    +0.000 C 
BRANCH  27  28
ATOM     28  C15 UNL     1      27.094  -8.951 -42.740  0.00  0.00    +0.000 A 
ATOM     29  C16 UNL     1      26.453  -9.836 -41.857  0.00  0.00    +0.000 A 
ATOM     30  C17 UNL     1      25.058  -9.934 -41.846  0.00  0.00    +0.000 A 
ATOM     31  C18 UNL     1      24.290  -9.146 -42.709  0.00  0.00    +0.000 A 
ATOM     32  C19 UNL     1      24.923  -8.256 -43.587  0.00  0.00    +0.000 A 
ATOM     33  C20 UNL     1      26.318  -8.155 -43.600  0.00  0.00    +0.000 A 
BRANCH  31  34
ATOM     34  O3  UNL     1      22.901  -9.254 -42.687  0.00  0.00    +0.000 OA
ATOM     35  H15 UNL     1      22.315  -8.664 -43.266  0.00  0.00    +0.000 HD
ENDBRANCH  31  34
ENDBRANCH  27  28
ENDBRANCH   6  27
TORSDOF 6
ENDMDL
MODEL 2
REMARK VINA RESULT:    -6.799      3.165      9.149
REMARK INTER + INTRA:         -10.145
REMARK INTER:                  -8.976
REMARK INTRA:                  -1.169
REMARK UNBOUND:                -1.160
REMARK  Name = resultss/4CJN/ligands/lig_241_t0.pdb
REMARK  7 active torsions:
REMARK  status: ('A' for Active; 'I' for Inactive)
REMARK    1  A    between atoms: C1_1  and  O1_2
REMARK    2  A    between atoms: O1_2  and  C2_3
REMARK    3  A    between atoms: C5_6  and  C6_7
REMARK    4  A    between atoms: N1_12  and  C9_13
REMARK    5  A    between atoms: C13_18  and  C14_19
REMARK    6  A    between atoms: C14_19  and  C15_20
REMARK    7  A    between atoms: C18_23  and  O3_24
REMARK                            x       y       z     vdW  Elec       q    Type
REMARK                         _______ _______ _______ _____ _____    ______ ____
ROOT
ATOM      1  C9  UNL     1      25.437  -7.980 -38.972  0.00  0.00    +0.000 A 
ATOM      2  C10 UNL     1      26.612  -7.219 -38.838  0.00  0.00    +0.000 A 
ATOM      3  C11 UNL     1      27.191  -7.022 -37.582  0.00  0.00    +0.000 A 
ATOM      4  C12 UNL     1      26.595  -7.573 -36.444  0.00  0.00    +0.000 A 
ATOM      5  N2  UNL     1      27.148  -7.382 -35.218  0.00  0.00    +0.000 NA
ATOM      6  C13 UNL     1      26.578  -7.895 -34.094  0.00  0.00    +0.000 A 
ATOM      7  C21 UNL     1      25.400  -8.657 -34.210  0.00  0.00    +0.000 A 
ATOM      8  O4  UNL     1      24.854  -9.158 -33.189  0.00  0.00    +0.000 OA
ATOM      9  N3  UNL     1      24.843  -8.851 -35.438  0.00  0.00    +0.000 N 
ATOM     10  C22 UNL     1      25.413  -8.329 -36.561  0.00  0.00    +0.000 A 
ATOM     11  C23 UNL     1      24.838  -8.527 -37.825  0.00  0.00    +0.000 A 
ATOM     12  H18 UNL     1      23.964  -9.416 -35.514  0.00  0.00    +0.000 HD
ENDROOT
BRANCH   1  18
ATOM     13  C6  UNL     1      24.933  -9.375 -41.043  0.00  0.00    +0.000 C 
ATOM     14  S1  UNL     1      24.139  -9.114 -42.675  0.00  0.00    +0.000 S 
ATOM     15  C7  UNL     1      23.578  -7.429 -42.268  0.00  0.00    +0.000 C 
ATOM     16  C8  UNL     1      24.059  -7.128 -40.904  0.00  0.00    +0.000 C 
ATOM     17  O2  UNL     1      23.782  -6.040 -40.334  0.00  0.00    +0.000 OA
ATOM     18  N1  UNL     1      24.819  -8.146 -40.263  0.00  0.00    +0.000 N 
BRANCH  13  22
ATOM     19  C2  UNL     1      29.073 -10.504 -41.622  0.00  0.00    +0.000 A 
ATOM     20  C3  UNL     1      28.327 -11.059 -40.576  0.00  0.00    +0.000 A 
ATOM     21  C4  UNL     1      26.995 -10.687 -40.379  0.00  0.00    +0.000 A 
ATOM     22  C5  UNL     1      26.382  -9.757 -41.236  0.00  0.00    +0.000 A 
ATOM     23  C24 UNL     1      27.130  -9.196 -42.283  0.00  0.00    +0.000 A 
ATOM     24  C25 UNL     1      28.464  -9.564 -42.476  0.00  0.00    +0.000 A 
BRANCH  19  26
ATOM     25  C1  UNL     1      30.905 -11.616 -42.908  0.00  0.00    +0.000 C 
ATOM     26  O1  UNL     1      30.406 -10.909 -41.776  0.00  0.00    +0.000 OA
ENDBRANCH  19  26
ENDBRANCH  13  22
ENDBRANCH   1  18
BRANCH   6  27
ATOM     27  C14 UNL     1      27.257  -7.681 -32.769  0.00  0.00    +0.000 C 
BRANCH  27  28
ATOM     28  C15 UNL     1      28.663  -8.211 -32.812  0.00  0.00    +0.000 A 
ATOM     29  C16 UNL     1      28.947  -9.425 -33.459  0.00  0.00    +0.000 A 
ATOM     30  C17 UNL     1      30.263  -9.896 -33.529  0.00  0.00    +0.000 A 
ATOM     31  C18 UNL     1      31.306  -9.157 -32.962  0.00  0.00    +0.000 A 
ATOM     32  C19 UNL     1      31.030  -7.941 -32.322  0.00  0.00    +0.000 A 
ATOM     33  C20 UNL     1      29.716  -7.468 -32.252  0.00  0.00    +0.000 A 
BRANCH  31  34
ATOM     34  O3  UNL     1      32.611  -9.639 -33.041  0.00  0.00    +0.000 OA
ATOM     35  H15 UNL     1      33.403  -9.071 -32.761  0.00  0.00    +0.000 HD
ENDBRANCH  31  34
ENDBRANCH  27  28
ENDBRANCH   6  27
TORSDOF 6
ENDMDL
MODEL 3
REMARK VINA RESULT:    -6.456      3.695      8.525
REMARK INTER + INTRA:          -9.692
REMARK INTER:                  -8.502
REMARK INTRA:                  -1.190
REMARK UNBOUND:                -1.160
REMARK  Name = resultss/4CJN/ligands/lig_241_t0.pdb
REMARK  7 active torsions:
REMARK  status: ('A' for Active; 'I' for Inactive)
REMARK    1  A    between atoms: C1_1  and  O1_2
REMARK    2  A    between atoms: O1_2  and  C2_3
REMARK    3  A    between atoms: C5_6  and  C6_7
REMARK    4  A    between atoms: N1_12  and  C9_13
REMARK    5  A    between atoms: C13_18  and  C14_19
REMARK    6  A    between atoms: C14_19  and  C15_20
REMARK    7  A    between atoms: C18_23  and  O3_24
REMARK                            x       y       z     vdW  Elec       q    Type
REMARK                         _______ _______ _______ _____ _____    ______ ____
ROOT
ATOM      1  C9  UNL     1      28.085  -9.235 -36.646  0.00  0.00    +0.000 A 
ATOM      2  C10 UNL     1      27.351  -9.777 -35.576  0.00  0.00    +0.000 A 
ATOM      3  C11 UNL     1      27.980 -10.088 -34.368  0.00  0.00    +0.000 A 
ATOM      4  C12 UNL     1      29.353  -9.874 -34.220  0.00  0.00    +0.000 A 
ATOM      5  N2  UNL     1      29.975 -10.179 -33.052  0.00  0.00    +0.000 NA
ATOM      6  C13 UNL     1      31.313  -9.994 -32.888  0.00  0.00    +0.000 A 
ATOM      7  C21 UNL     1      32.064  -9.456 -33.951  0.00  0.00    +0.000 A 
ATOM      8  O4  UNL     1      33.304  -9.260 -33.828  0.00  0.00    +0.000 OA
ATOM      9  N3  UNL     1      31.444  -9.148 -35.125  0.00  0.00    +0.000 N 
ATOM     10  C22 UNL     1      30.105  -9.343 -35.286  0.00  0.00    +0.000 A 
ATOM     11  C23 UNL     1      29.467  -9.027 -36.495  0.00  0.00    +0.000 A 
ATOM     12  H18 UNL     1      32.012  -8.753 -35.910  0.00  0.00    +0.000 HD
ENDROOT
BRANCH   1  18
ATOM     13  C6  UNL     1      26.801  -7.676 -38.198  0.00  0.00    +0.000 C 
ATOM     14  S1  UNL     1      25.978  -7.791 -39.832  0.00  0.00    +0.000 S 
ATOM     15  C7  UNL     1      26.577  -9.482 -40.151  0.00  0.00    +0.000 C 
ATOM     16  C8  UNL     1      27.356  -9.898 -38.966  0.00  0.00    +0.000 C 
ATOM     17  O2  UNL     1      27.935 -11.015 -38.920  0.00  0.00    +0.000 OA
ATOM     18  N1  UNL     1      27.442  -8.955 -37.905  0.00  0.00    +0.000 N 
BRANCH  13  22
ATOM     19  C2  UNL     1      23.901  -6.713 -35.130  0.00  0.00    +0.000 A 
ATOM     20  C3  UNL     1      23.633  -7.717 -36.068  0.00  0.00    +0.000 A 
ATOM     21  C4  UNL     1      24.561  -8.021 -37.067  0.00  0.00    +0.000 A 
ATOM     22  C5  UNL     1      25.783  -7.329 -37.137  0.00  0.00    +0.000 A 
ATOM     23  C24 UNL     1      26.052  -6.321 -36.199  0.00  0.00    +0.000 A 
ATOM     24  C25 UNL     1      25.121  -6.013 -35.203  0.00  0.00    +0.000 A 
BRANCH  19  26
ATOM     25  C1  UNL     1      23.199  -6.425 -32.749  0.00  0.00    +0.000 C 
ATOM     26  O1  UNL     1      22.937  -6.446 -34.149  0.00  0.00    +0.000 OA
ENDBRANCH  19  26
ENDBRANCH  13  22
ENDBRANCH   1  18
BRANCH   6  27
ATOM     27  C14 UNL     1      31.938 -10.316 -31.559  0.00  0.00    +0.000 C 
BRANCH  27  28
ATOM     28  C15 UNL     1      32.494 -11.712 -31.569  0.00  0.00    +0.000 A 
ATOM     29  C16 UNL     1      31.644 -12.819 -31.408  0.00  0.00    +0.000 A 
ATOM     30  C17 UNL     1      32.161 -14.118 -31.455  0.00  0.00    +0.000 A 
ATOM     31  C18 UNL     1      33.527 -14.325 -31.672  0.00  0.00    +0.000 A 
ATOM     32  C19 UNL     1      34.379 -13.225 -31.842  0.00  0.00    +0.000 A 
ATOM     33  C20 UNL     1      33.865 -11.926 -31.795  0.00  0.00    +0.000 A 
BRANCH  31  34
ATOM     34  O3  UNL     1      34.027 -15.624 -31.717  0.00  0.00    +0.000 OA
ATOM     35  H15 UNL     1      35.004 -15.809 -31.911  0.00  0.00    +0.000 HD
ENDBRANCH  31  34
ENDBRANCH  27  28
ENDBRANCH   6  27
TORSDOF 6
ENDMDL
MODEL 4
REMARK VINA RESULT:    -6.361      2.146      3.168
REMARK INTER + INTRA:          -9.566
REMARK INTER:                  -8.306
REMARK INTRA:                  -1.260
REMARK UNBOUND:                -1.160
REMARK  Name = resultss/4CJN/ligands/lig_241_t0.pdb
REMARK  7 active torsions:
REMARK  status: ('A' for Active; 'I' for Inactive)
REMARK    1  A    between atoms: C1_1  and  O1_2
REMARK    2  A    between atoms: O1_2  and  C2_3
REMARK    3  A    between atoms: C5_6  and  C6_7
REMARK    4  A    between atoms: N1_12  and  C9_13
REMARK    5  A    between atoms: C13_18  and  C14_19
REMARK    6  A    between atoms: C14_19  and  C15_20
REMARK    7  A    between atoms: C18_23  and  O3_24
REMARK                            x       y       z     vdW  Elec       q    Type
REMARK                         _______ _______ _______ _____ _____    ______ ____
ROOT
ATOM      1  C9  UNL     1      28.635  -9.249 -36.771  0.00  0.00    +0.000 A 
ATOM      2  C10 UNL     1      28.671 -10.463 -37.479  0.00  0.00    +0.000 A 
ATOM      3  C11 UNL     1      27.968 -10.607 -38.678  0.00  0.00    +0.000 A 
ATOM      4  C12 UNL     1      27.210  -9.544 -39.176  0.00  0.00    +0.000 A 
ATOM      5  N2  UNL     1      26.518  -9.676 -40.337  0.00  0.00    +0.000 NA
ATOM      6  C13 UNL     1      25.762  -8.660 -40.834  0.00  0.00    +0.000 A 
ATOM      7  C21 UNL     1      25.712  -7.439 -40.135  0.00  0.00    +0.000 A 
ATOM      8  O4  UNL     1      25.031  -6.473 -40.576  0.00  0.00    +0.000 OA
ATOM      9  N3  UNL     1      26.405  -7.302 -38.970  0.00  0.00    +0.000 N 
ATOM     10  C22 UNL     1      27.156  -8.325 -38.472  0.00  0.00    +0.000 A 
ATOM     11  C23 UNL     1      27.867  -8.184 -37.272  0.00  0.00    +0.000 A 
ATOM     12  H18 UNL     1      26.358  -6.391 -38.456  0.00  0.00    +0.000 HD
ENDROOT
BRANCH   1  18
ATOM     13  C6  UNL     1      28.817  -9.685 -34.268  0.00  0.00    +0.000 C 
ATOM     14  S1  UNL     1      29.908  -9.159 -32.892  0.00  0.00    +0.000 S 
ATOM     15  C7  UNL     1      31.075  -8.288 -33.988  0.00  0.00    +0.000 C 
ATOM     16  C8  UNL     1      30.552  -8.411 -35.364  0.00  0.00    +0.000 C 
ATOM     17  O2  UNL     1      31.178  -7.940 -36.350  0.00  0.00    +0.000 OA
ATOM     18  N1  UNL     1      29.326  -9.117 -35.514  0.00  0.00    +0.000 N 
BRANCH  13  22
ATOM     19  C2  UNL     1      24.769  -8.372 -33.469  0.00  0.00    +0.000 A 
ATOM     20  C3  UNL     1      25.015  -9.670 -33.934  0.00  0.00    +0.000 A 
ATOM     21  C4  UNL     1      26.319 -10.092 -34.205  0.00  0.00    +0.000 A 
ATOM     22  C5  UNL     1      27.404  -9.221 -34.004  0.00  0.00    +0.000 A 
ATOM     23  C24 UNL     1      27.159  -7.919 -33.542  0.00  0.00    +0.000 A 
ATOM     24  C25 UNL     1      25.854  -7.495 -33.277  0.00  0.00    +0.000 A 
BRANCH  19  26
ATOM     25  C1  UNL     1      23.033  -6.678 -32.868  0.00  0.00    +0.000 C 
ATOM     26  O1  UNL     1      23.443  -7.998 -33.214  0.00  0.00    +0.000 OA
ENDBRANCH  19  26
ENDBRANCH  13  22
ENDBRANCH   1  18
BRANCH   6  27
ATOM     27  C14 UNL     1      25.049  -8.854 -42.144  0.00  0.00    +0.000 C 
BRANCH  27  28
ATOM     28  C15 UNL     1      25.848  -8.254 -43.267  0.00  0.00    +0.000 A 
ATOM     29  C16 UNL     1      27.234  -8.468 -43.348  0.00  0.00    +0.000 A 
ATOM     30  C17 UNL     1      27.968  -7.939 -44.415  0.00  0.00    +0.000 A 
ATOM     31  C18 UNL     1      27.326  -7.198 -45.413  0.00  0.00    +0.000 A 
ATOM     32  C19 UNL     1      25.942  -6.988 -45.341  0.00  0.00    +0.000 A 
ATOM     33  C20 UNL     1      25.206  -7.517 -44.276  0.00  0.00    +0.000 A 
BRANCH  31  34
ATOM     34  O3  UNL     1      28.070  -6.678 -46.469  0.00  0.00    +0.000 OA
ATOM     35  H15 UNL     1      27.962  -5.716 -46.769  0.00  0.00    +0.000 HD
ENDBRANCH  31  34
ENDBRANCH  27  28
ENDBRANCH   6  27
TORSDOF 6
ENDMDL
MODEL 5
REMARK VINA RESULT:    -6.227      2.999      5.485
REMARK INTER + INTRA:          -9.390
REMARK INTER:                  -8.561
REMARK INTRA:                  -0.829
REMARK UNBOUND:                -1.160
REMARK  Name = resultss/4CJN/ligands/lig_241_t0.pdb
REMARK  7 active torsions:
REMARK  status: ('A' for Active; 'I' for Inactive)
REMARK    1  A    between atoms: C1_1  and  O1_2
REMARK    2  A    between atoms: O1_2  and  C2_3
REMARK    3  A    between atoms: C5_6  and  C6_7
REMARK    4  A    between atoms: N1_12  and  C9_13
REMARK    5  A    between atoms: C13_18  and  C14_19
REMARK    6  A    between atoms: C14_19  and  C15_20
REMARK    7  A    between atoms: C18_23  and  O3_24
REMARK                            x       y       z     vdW  Elec       q    Type
REMARK                         _______ _______ _______ _____ _____    ______ ____
ROOT
ATOM      1  C9  UNL     1      24.884  -6.821 -36.948  0.00  0.00    +0.000 A 
ATOM      2  C10 UNL     1      25.892  -5.968 -37.432  0.00  0.00    +0.000 A 
ATOM      3  C11 UNL     1      26.484  -6.203 -38.675  0.00  0.00    +0.000 A 
ATOM      4  C12 UNL     1      26.086  -7.300 -39.443  0.00  0.00    +0.000 A 
ATOM      5  N2  UNL     1      26.661  -7.540 -40.650  0.00  0.00    +0.000 NA
ATOM      6  C13 UNL     1      26.300  -8.610 -41.410  0.00  0.00    +0.000 A 
ATOM      7  C21 UNL     1      25.296  -9.476 -40.938  0.00  0.00    +0.000 A 
ATOM      8  O4  UNL     1      24.930 -10.470 -41.623  0.00  0.00    +0.000 OA
ATOM      9  N3  UNL     1      24.717  -9.239 -39.728  0.00  0.00    +0.000 N 
ATOM     10  C22 UNL     1      25.086  -8.170 -38.967  0.00  0.00    +0.000 A 
ATOM     11  C23 UNL     1      24.490  -7.927 -37.721  0.00  0.00    +0.000 A 
ATOM     12  H18 UNL     1      23.973  -9.891 -39.384  0.00  0.00    +0.000 HD
ENDROOT
BRANCH   1  18
ATOM     13  C6  UNL     1      25.106  -6.290 -34.467  0.00  0.00    +0.000 C 
ATOM     14  S1  UNL     1      24.004  -6.242 -33.003  0.00  0.00    +0.000 S 
ATOM     15  C7  UNL     1      22.492  -6.528 -33.979  0.00  0.00    +0.000 C 
ATOM     16  C8  UNL     1      22.909  -6.685 -35.388  0.00  0.00    +0.000 C 
ATOM     17  O2  UNL     1      22.065  -6.851 -36.308  0.00  0.00    +0.000 OA
ATOM     18  N1  UNL     1      24.305  -6.601 -35.647  0.00  0.00    +0.000 N 
BRANCH  13  22
ATOM     19  C2  UNL     1      28.204  -9.265 -33.919  0.00  0.00    +0.000 A 
ATOM     20  C3  UNL     1      26.883  -9.655 -34.169  0.00  0.00    +0.000 A 
ATOM     21  C4  UNL     1      25.879  -8.698 -34.333  0.00  0.00    +0.000 A 
ATOM     22  C5  UNL     1      26.184  -7.328 -34.260  0.00  0.00    +0.000 A 
ATOM     23  C24 UNL     1      27.507  -6.934 -34.006  0.00  0.00    +0.000 A 
ATOM     24  C25 UNL     1      28.510  -7.893 -33.836  0.00  0.00    +0.000 A 
BRANCH  19  26
ATOM     25  C1  UNL     1      30.554 -10.013 -33.516  0.00  0.00    +0.000 C 
ATOM     26  O1  UNL     1      29.174 -10.264 -33.760  0.00  0.00    +0.000 OA
ENDBRANCH  19  26
ENDBRANCH  13  22
ENDBRANCH   1  18
BRANCH   6  27
ATOM     27  C14 UNL     1      26.946  -8.802 -42.754  0.00  0.00    +0.000 C 
BRANCH  27  28
ATOM     28  C15 UNL     1      28.264  -9.510 -42.603  0.00  0.00    +0.000 A 
ATOM     29  C16 UNL     1      28.450 -10.457 -41.582  0.00  0.00    +0.000 A 
ATOM     30  C17 UNL     1      29.666 -11.140 -41.467  0.00  0.00    +0.000 A 
ATOM     31  C18 UNL     1      30.702 -10.892 -42.373  0.00  0.00    +0.000 A 
ATOM     32  C19 UNL     1      30.519  -9.954 -43.399  0.00  0.00    +0.000 A 
ATOM     33  C20 UNL     1      29.305  -9.270 -43.516  0.00  0.00    +0.000 A 
BRANCH  31  34
ATOM     34  O3  UNL     1      31.906 -11.581 -42.247  0.00  0.00    +0.000 OA
ATOM     35  H15 UNL     1      32.644 -11.248 -41.637  0.00  0.00    +0.000 HD
ENDBRANCH  31  34
ENDBRANCH  27  28
ENDBRANCH   6  27
TORSDOF 6
ENDMDL
MODEL 6
REMARK VINA RESULT:    -6.172      2.701      5.429
REMARK INTER + INTRA:          -9.317
REMARK INTER:                  -7.953
REMARK INTRA:                  -1.364
REMARK UNBOUND:                -1.160
REMARK  Name = resultss/4CJN/ligands/lig_241_t0.pdb
REMARK  7 active torsions:
REMARK  status: ('A' for Active; 'I' for Inactive)
REMARK    1  A    between atoms: C1_1  and  O1_2
REMARK    2  A    between atoms: O1_2  and  C2_3
REMARK    3  A    between atoms: C5_6  and  C6_7
REMARK    4  A    between atoms: N1_12  and  C9_13
REMARK    5  A    between atoms: C13_18  and  C14_19
REMARK    6  A    between atoms: C14_19  and  C15_20
REMARK    7  A    between atoms: C18_23  and  O3_24
REMARK                            x       y       z     vdW  Elec       q    Type
REMARK                         _______ _______ _______ _____ _____    ______ ____
ROOT
ATOM      1  C9  UNL     1      27.610  -8.541 -36.779  0.00  0.00    +0.000 A 
ATOM      2  C10 UNL     1      27.657  -9.936 -36.946  0.00  0.00    +0.000 A 
ATOM      3  C11 UNL     1      28.003 -10.491 -38.180  0.00  0.00    +0.000 A 
ATOM      4  C12 UNL     1      28.290  -9.659 -39.265  0.00  0.00    +0.000 A 
ATOM      5  N2  UNL     1      28.620 -10.190 -40.471  0.00  0.00    +0.000 NA
ATOM      6  C13 UNL     1      28.891  -9.400 -41.546  0.00  0.00    +0.000 A 
ATOM      7  C21 UNL     1      28.843  -8.002 -41.396  0.00  0.00    +0.000 A 
ATOM      8  O4  UNL     1      29.100  -7.241 -42.370  0.00  0.00    +0.000 OA
ATOM      9  N3  UNL     1      28.512  -7.465 -40.189  0.00  0.00    +0.000 N 
ATOM     10  C22 UNL     1      28.236  -8.259 -39.116  0.00  0.00    +0.000 A 
ATOM     11  C23 UNL     1      27.894  -7.707 -37.874  0.00  0.00    +0.000 A 
ATOM     12  H18 UNL     1      28.476  -6.423 -40.089  0.00  0.00    +0.000 HD
ENDROOT
BRANCH   1  18
ATOM     13  C6  UNL     1      28.139  -7.254 -34.645  0.00  0.00    +0.000 C 
ATOM     14  S1  UNL     1      27.276  -6.832 -33.084  0.00  0.00    +0.000 S 
ATOM     15  C7  UNL     1      25.680  -7.512 -33.641  0.00  0.00    +0.000 C 
ATOM     16  C8  UNL     1      25.893  -8.067 -34.994  0.00  0.00    +0.000 C 
ATOM     17  O2  UNL     1      24.945  -8.569 -35.655  0.00  0.00    +0.000 OA
ATOM     18  N1  UNL     1      27.212  -7.970 -35.516  0.00  0.00    +0.000 N 
BRANCH  13  22
ATOM     19  C2  UNL     1      31.634  -9.647 -33.745  0.00  0.00    +0.000 A 
ATOM     20  C3  UNL     1      31.742  -8.514 -34.559  0.00  0.00    +0.000 A 
ATOM     21  C4  UNL     1      30.614  -7.747 -34.862  0.00  0.00    +0.000 A 
ATOM     22  C5  UNL     1      29.356  -8.098 -34.343  0.00  0.00    +0.000 A 
ATOM     23  C24 UNL     1      29.244  -9.237 -33.530  0.00  0.00    +0.000 A 
ATOM     24  C25 UNL     1      30.372 -10.007 -33.233  0.00  0.00    +0.000 A 
BRANCH  19  26
ATOM     25  C1  UNL     1      33.413 -10.464 -32.192  0.00  0.00    +0.000 C 
ATOM     26  O1  UNL     1      32.795 -10.383 -33.473  0.00  0.00    +0.000 OA
ENDBRANCH  19  26
ENDBRANCH  13  22
ENDBRANCH   1  18
BRANCH   6  27
ATOM     27  C14 UNL     1      29.287 -10.046 -42.845  0.00  0.00    +0.000 C 
BRANCH  27  28
ATOM     28  C15 UNL     1      30.620 -10.727 -42.704  0.00  0.00    +0.000 A 
ATOM     29  C16 UNL     1      30.787 -12.059 -43.117  0.00  0.00    +0.000 A 
ATOM     30  C17 UNL     1      32.039 -12.676 -43.017  0.00  0.00    +0.000 A 
ATOM     31  C18 UNL     1      33.135 -11.969 -42.514  0.00  0.00    +0.000 A 
ATOM     32  C19 UNL     1      32.976 -10.637 -42.108  0.00  0.00    +0.000 A 
ATOM     33  C20 UNL     1      31.727 -10.017 -42.207  0.00  0.00    +0.000 A 
BRANCH  31  34
ATOM     34  O3  UNL     1      34.375 -12.597 -42.422  0.00  0.00    +0.000 OA
ATOM     35  H15 UNL     1      35.081 -12.281 -41.767  0.00  0.00    +0.000 HD
ENDBRANCH  31  34
ENDBRANCH  27  28
ENDBRANCH   6  27
TORSDOF 6
ENDMDL
MODEL 7
REMARK VINA RESULT:    -6.018      2.844      5.353
REMARK INTER + INTRA:          -9.114
REMARK INTER:                  -7.839
REMARK INTRA:                  -1.275
REMARK UNBOUND:                -1.160
REMARK  Name = resultss/4CJN/ligands/lig_241_t0.pdb
REMARK  7 active torsions:
REMARK  status: ('A' for Active; 'I' for Inactive)
REMARK    1  A    between atoms: C1_1  and  O1_2
REMARK    2  A    between atoms: O1_2  and  C2_3
REMARK    3  A    between atoms: C5_6  and  C6_7
REMARK    4  A    between atoms: N1_12  and  C9_13
REMARK    5  A    between atoms: C13_18  and  C14_19
REMARK    6  A    between atoms: C14_19  and  C15_20
REMARK    7  A    between atoms: C18_23  and  O3_24
REMARK                            x       y       z     vdW  Elec       q    Type
REMARK                         _______ _______ _______ _____ _____    ______ ____
ROOT
ATOM      1  C9  UNL     1      26.336  -7.632 -37.046  0.00  0.00    +0.000 A 
ATOM      2  C10 UNL     1      26.705  -6.595 -37.920  0.00  0.00    +0.000 A 
ATOM      3  C11 UNL     1      27.245  -6.883 -39.176  0.00  0.00    +0.000 A 
ATOM      4  C12 UNL     1      27.436  -8.211 -39.567  0.00  0.00    +0.000 A 
ATOM      5  N2  UNL     1      27.966  -8.501 -40.784  0.00  0.00    +0.000 NA
ATOM      6  C13 UNL     1      28.175  -9.785 -41.181  0.00  0.00    +0.000 A 
ATOM      7  C21 UNL     1      27.815 -10.836 -40.316  0.00  0.00    +0.000 A 
ATOM      8  O4  UNL     1      27.984 -12.038 -40.659  0.00  0.00    +0.000 OA
ATOM      9  N3  UNL     1      27.283 -10.550 -39.095  0.00  0.00    +0.000 N 
ATOM     10  C22 UNL     1      27.082  -9.261 -38.698  0.00  0.00    +0.000 A 
ATOM     11  C23 UNL     1      26.535  -8.967 -37.441  0.00  0.00    +0.000 A 
ATOM     12  H18 UNL     1      27.022 -11.338 -38.457  0.00  0.00    +0.000 HD
ENDROOT
BRANCH   1  18
ATOM     13  C6  UNL     1      26.643  -6.771 -34.669  0.00  0.00    +0.000 C 
ATOM     14  S1  UNL     1      25.646  -6.691 -33.133  0.00  0.00    +0.000 S 
ATOM     15  C7  UNL     1      24.130  -7.298 -33.941  0.00  0.00    +0.000 C 
ATOM     16  C8  UNL     1      24.470  -7.571 -35.352  0.00  0.00    +0.000 C 
ATOM     17  O2  UNL     1      23.600  -7.964 -36.174  0.00  0.00    +0.000 OA
ATOM     18  N1  UNL     1      25.819  -7.333 -35.735  0.00  0.00    +0.000 N 
BRANCH  13  22
ATOM     19  C2  UNL     1      30.160  -9.219 -34.042  0.00  0.00    +0.000 A 
ATOM     20  C3  UNL     1      28.887  -9.714 -33.731  0.00  0.00    +0.000 A 
ATOM     21  C4  UNL     1      27.752  -8.921 -33.921  0.00  0.00    +0.000 A 
ATOM     22  C5  UNL     1      27.872  -7.619 -34.436  0.00  0.00    +0.000 A 
ATOM     23  C24 UNL     1      29.147  -7.120 -34.744  0.00  0.00    +0.000 A 
ATOM     24  C25 UNL     1      30.283  -7.911 -34.549  0.00  0.00    +0.000 A 
BRANCH  19  26
ATOM     25  C1  UNL     1      31.733 -10.463 -32.551  0.00  0.00    +0.000 C 
ATOM     26  O1  UNL     1      31.266 -10.053 -33.833  0.00  0.00    +0.000 OA
ENDBRANCH  19  26
ENDBRANCH  13  22
ENDBRANCH   1  18
BRANCH   6  27
ATOM     27  C14 UNL     1      28.731 -10.044 -42.554  0.00  0.00    +0.000 C 
BRANCH  27  28
ATOM     28  C15 UNL     1      30.210 -10.303 -42.477  0.00  0.00    +0.000 A 
ATOM     29  C16 UNL     1      30.993  -9.674 -41.495  0.00  0.00    +0.000 A 
ATOM     30  C17 UNL     1      32.362  -9.947 -41.403  0.00  0.00    +0.000 A 
ATOM     31  C18 UNL     1      32.960 -10.854 -42.284  0.00  0.00    +0.000 A 
ATOM     32  C19 UNL     1      32.183 -11.490 -43.262  0.00  0.00    +0.000 A 
ATOM     33  C20 UNL     1      30.814 -11.220 -43.355  0.00  0.00    +0.000 A 
BRANCH  31  34
ATOM     34  O3  UNL     1      34.324 -11.115 -42.180  0.00  0.00    +0.000 OA
ATOM     35  H15 UNL     1      34.795 -11.121 -41.283  0.00  0.00    +0.000 HD
ENDBRANCH  31  34
ENDBRANCH  27  28
ENDBRANCH   6  27
TORSDOF 6
ENDMDL
MODEL 8
REMARK VINA RESULT:    -5.923      1.735      2.349
REMARK INTER + INTRA:          -8.988
REMARK INTER:                  -7.864
REMARK INTRA:                  -1.124
REMARK UNBOUND:                -1.160
REMARK  Name = resultss/4CJN/ligands/lig_241_t0.pdb
REMARK  7 active torsions:
REMARK  status: ('A' for Active; 'I' for Inactive)
REMARK    1  A    between atoms: C1_1  and  O1_2
REMARK    2  A    between atoms: O1_2  and  C2_3
REMARK    3  A    between atoms: C5_6  and  C6_7
REMARK    4  A    between atoms: N1_12  and  C9_13
REMARK    5  A    between atoms: C13_18  and  C14_19
REMARK    6  A    between atoms: C14_19  and  C15_20
REMARK    7  A    between atoms: C18_23  and  O3_24
REMARK                            x       y       z     vdW  Elec       q    Type
REMARK                         _______ _______ _______ _____ _____    ______ ____
ROOT
ATOM      1  C9  UNL     1      29.015  -9.358 -36.918  0.00  0.00    +0.000 A 
ATOM      2  C10 UNL     1      28.497 -10.594 -37.342  0.00  0.00    +0.000 A 
ATOM      3  C11 UNL     1      27.978 -10.741 -38.631  0.00  0.00    +0.000 A 
ATOM      4  C12 UNL     1      27.958  -9.651 -39.505  0.00  0.00    +0.000 A 
ATOM      5  N2  UNL     1      27.450  -9.783 -40.758  0.00  0.00    +0.000 NA
ATOM      6  C13 UNL     1      27.407  -8.733 -41.622  0.00  0.00    +0.000 A 
ATOM      7  C21 UNL     1      27.918  -7.487 -41.211  0.00  0.00    +0.000 A 
ATOM      8  O4  UNL     1      27.904  -6.497 -41.992  0.00  0.00    +0.000 OA
ATOM      9  N3  UNL     1      28.429  -7.351 -39.956  0.00  0.00    +0.000 N 
ATOM     10  C22 UNL     1      28.464  -8.404 -39.090  0.00  0.00    +0.000 A 
ATOM     11  C23 UNL     1      28.989  -8.262 -37.798  0.00  0.00    +0.000 A 
ATOM     12  H18 UNL     1      28.803  -6.419 -39.658  0.00  0.00    +0.000 HD
ENDROOT
BRANCH   1  18
ATOM     13  C6  UNL     1      28.753  -9.609 -34.396  0.00  0.00    +0.000 C 
ATOM     14  S1  UNL     1      29.666  -9.089 -32.895  0.00  0.00    +0.000 S 
ATOM     15  C7  UNL     1      31.081  -8.431 -33.836  0.00  0.00    +0.000 C 
ATOM     16  C8  UNL     1      30.770  -8.608 -35.269  0.00  0.00    +0.000 C 
ATOM     17  O2  UNL     1      31.592  -8.283 -36.165  0.00  0.00    +0.000 OA
ATOM     18  N1  UNL     1      29.511  -9.197 -35.574  0.00  0.00    +0.000 N 
BRANCH  13  22
ATOM     19  C2  UNL     1      24.809  -7.822 -34.445  0.00  0.00    +0.000 A 
ATOM     20  C3  UNL     1      25.953  -7.015 -34.437  0.00  0.00    +0.000 A 
ATOM     21  C4  UNL     1      27.226  -7.589 -34.408  0.00  0.00    +0.000 A 
ATOM     22  C5  UNL     1      27.376  -8.986 -34.398  0.00  0.00    +0.000 A 
ATOM     23  C24 UNL     1      26.231  -9.797 -34.402  0.00  0.00    +0.000 A 
ATOM     24  C25 UNL     1      24.957  -9.222 -34.425  0.00  0.00    +0.000 A 
BRANCH  19  26
ATOM     25  C1  UNL     1      22.357  -7.819 -34.929  0.00  0.00    +0.000 C 
ATOM     26  O1  UNL     1      23.555  -7.197 -34.473  0.00  0.00    +0.000 OA
ENDBRANCH  19  26
ENDBRANCH  13  22
ENDBRANCH   1  18
BRANCH   6  27
ATOM     27  C14 UNL     1      26.866  -8.950 -43.008  0.00  0.00    +0.000 C 
BRANCH  27  28
ATOM     28  C15 UNL     1      25.420  -8.544 -43.073  0.00  0.00    +0.000 A 
ATOM     29  C16 UNL     1      25.014  -7.488 -43.906  0.00  0.00    +0.000 A 
ATOM     30  C17 UNL     1      23.662  -7.137 -43.992  0.00  0.00    +0.000 A 
ATOM     31  C18 UNL     1      22.704  -7.840 -43.255  0.00  0.00    +0.000 A 
ATOM     32  C19 UNL     1      23.102  -8.900 -42.429  0.00  0.00    +0.000 A 
ATOM     33  C20 UNL     1      24.452  -9.253 -42.342  0.00  0.00    +0.000 A 
BRANCH  31  34
ATOM     34  O3  UNL     1      21.362  -7.479 -43.351  0.00  0.00    +0.000 OA
ATOM     35  H15 UNL     1      20.645  -7.958 -42.818  0.00  0.00    +0.000 HD
ENDBRANCH  31  34
ENDBRANCH  27  28
ENDBRANCH   6  27
TORSDOF 6
ENDMDL
MODEL 9
REMARK VINA RESULT:    -5.762      3.077      5.599
REMARK INTER + INTRA:          -8.775
REMARK INTER:                  -7.720
REMARK INTRA:                  -1.055
REMARK UNBOUND:                -1.160
REMARK  Name = resultss/4CJN/ligands/lig_241_t0.pdb
REMARK  7 active torsions:
REMARK  status: ('A' for Active; 'I' for Inactive)
REMARK    1  A    between atoms: C1_1  and  O1_2
REMARK    2  A    between atoms: O1_2  and  C2_3
REMARK    3  A    between atoms: C5_6  and  C6_7
REMARK    4  A    between atoms: N1_12  and  C9_13
REMARK    5  A    between atoms: C13_18  and  C14_19
REMARK    6  A    between atoms: C14_19  and  C15_20
REMARK    7  A    between atoms: C18_23  and  O3_24
REMARK                            x       y       z     vdW  Elec       q    Type
REMARK                         _______ _______ _______ _____ _____    ______ ____
ROOT
ATOM      1  C9  UNL     1      25.041  -7.405 -37.311  0.00  0.00    +0.000 A 
ATOM      2  C10 UNL     1      24.713  -6.115 -37.761  0.00  0.00    +0.000 A 
ATOM      3  C11 UNL     1      24.339  -5.901 -39.091  0.00  0.00    +0.000 A 
ATOM      4  C12 UNL     1      24.301  -6.972 -39.987  0.00  0.00    +0.000 A 
ATOM      5  N2  UNL     1      23.945  -6.772 -41.283  0.00  0.00    +0.000 NA
ATOM      6  C13 UNL     1      23.915  -7.797 -42.178  0.00  0.00    +0.000 A 
ATOM      7  C21 UNL     1      24.244  -9.094 -41.743  0.00  0.00    +0.000 A 
ATOM      8  O4  UNL     1      24.214 -10.068 -42.545  0.00  0.00    +0.000 OA
ATOM      9  N3  UNL     1      24.602  -9.299 -40.445  0.00  0.00    +0.000 N 
ATOM     10  C22 UNL     1      24.638  -8.269 -39.553  0.00  0.00    +0.000 A 
ATOM     11  C23 UNL     1      25.008  -8.479 -38.217  0.00  0.00    +0.000 A 
ATOM     12  H18 UNL     1      24.849 -10.268 -40.133  0.00  0.00    +0.000 HD
ENDROOT
BRANCH   1  18
ATOM     13  C6  UNL     1      26.825  -7.331 -35.494  0.00  0.00    +0.000 C 
ATOM     14  S1  UNL     1      26.990  -7.882 -33.754  0.00  0.00    +0.000 S 
ATOM     15  C7  UNL     1      25.244  -8.384 -33.620  0.00  0.00    +0.000 C 
ATOM     16  C8  UNL     1      24.619  -8.138 -34.936  0.00  0.00    +0.000 C 
ATOM     17  O2  UNL     1      23.393  -8.351 -35.132  0.00  0.00    +0.000 OA
ATOM     18  N1  UNL     1      25.468  -7.617 -35.951  0.00  0.00    +0.000 N 
BRANCH  13  22
ATOM     19  C2  UNL     1      29.776  -9.357 -37.931  0.00  0.00    +0.000 A 
ATOM     20  C3  UNL     1      29.411  -8.035 -38.213  0.00  0.00    +0.000 A 
ATOM     21  C4  UNL     1      28.450  -7.383 -37.436  0.00  0.00    +0.000 A 
ATOM     22  C5  UNL     1      27.843  -8.044 -36.354  0.00  0.00    +0.000 A 
ATOM     23  C24 UNL     1      28.204  -9.370 -36.072  0.00  0.00    +0.000 A 
ATOM     24  C25 UNL     1      29.162 -10.024 -36.854  0.00  0.00    +0.000 A 
BRANCH  19  26
ATOM     25  C1  UNL     1      30.964  -9.643 -40.111  0.00  0.00    +0.000 C 
ATOM     26  O1  UNL     1      30.744  -9.966 -38.741  0.00  0.00    +0.000 OA
ENDBRANCH  19  26
ENDBRANCH  13  22
ENDBRANCH   1  18
BRANCH   6  27
ATOM     27  C14 UNL     1      23.476  -7.520 -43.589  0.00  0.00    +0.000 C 
BRANCH  27  28
ATOM     28  C15 UNL     1      24.673  -7.358 -44.485  0.00  0.00    +0.000 A 
ATOM     29  C16 UNL     1      25.972  -7.445 -43.959  0.00  0.00    +0.000 A 
ATOM     30  C17 UNL     1      27.083  -7.331 -44.802  0.00  0.00    +0.000 A 
ATOM     31  C18 UNL     1      26.908  -7.138 -46.176  0.00  0.00    +0.000 A 
ATOM     32  C19 UNL     1      25.613  -7.059 -46.708  0.00  0.00    +0.000 A 
ATOM     33  C20 UNL     1      24.502  -7.173 -45.867  0.00  0.00    +0.000 A 
BRANCH  31  34
ATOM     34  O3  UNL     1      28.023  -7.027 -47.003  0.00  0.00    +0.000 OA
ATOM     35  H15 UNL     1      28.658  -7.805 -47.142  0.00  0.00    +0.000 HD
ENDBRANCH  31  34
ENDBRANCH  27  28
ENDBRANCH   6  27
TORSDOF 6
ENDMDL
