MODEL 1
REMARK VINA RESULT:    -5.533      0.000      0.000
REMARK INTER + INTRA:          -6.904
REMARK INTER:                  -6.665
REMARK INTRA:                  -0.238
REMARK UNBOUND:                -0.238
REMARK  Name = resultss/4CJN/ligands/lig_309_t1.pdb
REMARK  7 active torsions:
REMARK  status: ('A' for Active; 'I' for Inactive)
REMARK    1  A    between atoms: C1_1  and  O1_2
REMARK    2  A    between atoms: O1_2  and  C2_3
REMARK    3  A    between atoms: C4_5  and  O2_6
REMARK    4  A    between atoms: C8_11  and  O4_12
REMARK    5  A    between atoms: O4_12  and  C9_13
REMARK    6  A    between atoms: C15_21  and  O7_22
REMARK    7  A    between atoms: O7_22  and  C16_23
REMARK                            x       y       z     vdW  Elec       q    Type
REMARK                         _______ _______ _______ _____ _____    ______ ____
ROOT
ATOM      1  C2  UNL     1      24.985  -8.677 -34.989  0.00  0.00    +0.000 A 
ATOM      2  C3  UNL     1      24.102  -7.837 -35.681  0.00  0.00    +0.000 A 
ATOM      3  C4  UNL     1      24.212  -7.646 -37.059  0.00  0.00    +0.000 A 
ATOM      4  C5  UNL     1      25.184  -8.376 -37.797  0.00  0.00    +0.000 A 
ATOM      5  C6  UNL     1      25.277  -8.360 -39.211  0.00  0.00    +0.000 A 
ATOM      6  O3  UNL     1      24.421  -7.763 -39.916  0.00  0.00    +0.000 OA
ATOM      7  C7  UNL     1      26.313  -9.058 -39.856  0.00  0.00    +0.000 A 
ATOM      8  C8  UNL     1      26.405  -9.081 -41.372  0.00  0.00    +0.000 C 
ATOM      9  C10 UNL     1      27.727  -9.632 -41.856  0.00  0.00    +0.000 C 
ATOM     10  O5  UNL     1      28.086  -9.431 -43.046  0.00  0.00    +0.000 OA
ATOM     11  C11 UNL     1      28.578 -10.448 -40.977  0.00  0.00    +0.000 C 
ATOM     12  C12 UNL     1      28.319 -10.542 -39.675  0.00  0.00    +0.000 C 
ATOM     13  C13 UNL     1      27.201  -9.804 -39.065  0.00  0.00    +0.000 A 
ATOM     14  O6  UNL     1      27.049  -9.854 -37.750  0.00  0.00    +0.000 OA
ATOM     15  C14 UNL     1      26.098  -9.205 -37.089  0.00  0.00    +0.000 A 
ATOM     16  C15 UNL     1      25.997  -9.350 -35.684  0.00  0.00    +0.000 A 
ENDROOT
BRANCH   1  18
ATOM     17  C1  UNL     1      23.676  -8.945 -32.870  0.00  0.00    +0.000 C 
ATOM     18  O1  UNL     1      24.895  -8.864 -33.600  0.00  0.00    +0.000 OA
ENDBRANCH   1  18
BRANCH   3  19
ATOM     19  O2  UNL     1      23.353  -6.699 -37.626  0.00  0.00    +0.000 OA
ATOM     20  H5  UNL     1      22.757  -6.080 -37.096  0.00  0.00    +0.000 HD
ENDBRANCH   3  19
BRANCH   8  21
ATOM     21  O4  UNL     1      25.360  -9.902 -41.865  0.00  0.00    +0.000 OA
ATOM     22  C9  UNL     1      24.694  -9.276 -42.941  0.00  0.00    +0.000 C 
ENDBRANCH   8  21
BRANCH  16  23
ATOM     23  O7  UNL     1      26.864 -10.154 -34.916  0.00  0.00    +0.000 OA
ATOM     24  C16 UNL     1      28.154  -9.793 -34.433  0.00  0.00    +0.000 C 
ENDBRANCH  16  23
TORSDOF 4
ENDMDL
MODEL 2
REMARK VINA RESULT:    -5.177      1.666      3.733
REMARK INTER + INTRA:          -6.475
REMARK INTER:                  -6.230
REMARK INTRA:                  -0.245
REMARK UNBOUND:                -0.238
REMARK  Name = resultss/4CJN/ligands/lig_309_t1.pdb
REMARK  7 active torsions:
REMARK  status: ('A' for Active; 'I' for Inactive)
REMARK    1  A    between atoms: C1_1  and  O1_2
REMARK    2  A    between atoms: O1_2  and  C2_3
REMARK    3  A    between atoms: C4_5  and  O2_6
REMARK    4  A    between atoms: C8_11  and  O4_12
REMARK    5  A    between atoms: O4_12  and  C9_13
REMARK    6  A    between atoms: C15_21  and  O7_22
REMARK    7  A    between atoms: O7_22  and  C16_23
REMARK                            x       y       z     vdW  Elec       q    Type
REMARK                         _______ _______ _______ _____ _____    ______ ____
ROOT
ATOM      1  C2  UNL     1      25.340  -8.534 -34.511  0.00  0.00    +0.000 A 
ATOM      2  C3  UNL     1      26.546  -9.033 -34.000  0.00  0.00    +0.000 A 
ATOM      3  C4  UNL     1      27.539  -9.536 -34.841  0.00  0.00    +0.000 A 
ATOM      4  C5  UNL     1      27.366  -9.471 -36.252  0.00  0.00    +0.000 A 
ATOM      5  C6  UNL     1      28.373  -9.821 -37.186  0.00  0.00    +0.000 A 
ATOM      6  O3  UNL     1      29.537 -10.121 -36.812  0.00  0.00    +0.000 OA
ATOM      7  C7  UNL     1      28.094  -9.791 -38.564  0.00  0.00    +0.000 A 
ATOM      8  C8  UNL     1      29.172 -10.128 -39.580  0.00  0.00    +0.000 C 
ATOM      9  C10 UNL     1      28.608 -10.319 -40.969  0.00  0.00    +0.000 C 
ATOM     10  O5  UNL     1      29.300 -10.899 -41.847  0.00  0.00    +0.000 OA
ATOM     11  C11 UNL     1      27.286  -9.789 -41.333  0.00  0.00    +0.000 C 
ATOM     12  C12 UNL     1      26.460  -9.322 -40.399  0.00  0.00    +0.000 C 
ATOM     13  C13 UNL     1      26.823  -9.357 -38.973  0.00  0.00    +0.000 A 
ATOM     14  O6  UNL     1      25.925  -8.973 -38.079  0.00  0.00    +0.000 OA
ATOM     15  C14 UNL     1      26.130  -8.992 -36.768  0.00  0.00    +0.000 A 
ATOM     16  C15 UNL     1      25.118  -8.528 -35.893  0.00  0.00    +0.000 A 
ENDROOT
BRANCH   1  18
ATOM     17  C1  UNL     1      23.455  -8.852 -32.891  0.00  0.00    +0.000 C 
ATOM     18  O1  UNL     1      24.326  -8.041 -33.672  0.00  0.00    +0.000 OA
ENDBRANCH   1  18
BRANCH   3  19
ATOM     19  O2  UNL     1      28.650 -10.112 -34.218  0.00  0.00    +0.000 OA
ATOM     20  H5  UNL     1      28.848 -11.102 -34.207  0.00  0.00    +0.000 HD
ENDBRANCH   3  19
BRANCH   8  21
ATOM     21  O4  UNL     1      30.102  -9.059 -39.607  0.00  0.00    +0.000 OA
ATOM     22  C9  UNL     1      31.427  -9.544 -39.589  0.00  0.00    +0.000 C 
ENDBRANCH   8  21
BRANCH  16  23
ATOM     23  O7  UNL     1      23.870  -8.038 -36.330  0.00  0.00    +0.000 OA
ATOM     24  C16 UNL     1      23.576  -6.707 -36.741  0.00  0.00    +0.000 C 
ENDBRANCH  16  23
TORSDOF 4
ENDMDL
MODEL 3
REMARK VINA RESULT:    -5.059      1.975      4.109
REMARK INTER + INTRA:          -6.333
REMARK INTER:                  -6.099
REMARK INTRA:                  -0.234
REMARK UNBOUND:                -0.238
REMARK  Name = resultss/4CJN/ligands/lig_309_t1.pdb
REMARK  7 active torsions:
REMARK  status: ('A' for Active; 'I' for Inactive)
REMARK    1  A    between atoms: C1_1  and  O1_2
REMARK    2  A    between atoms: O1_2  and  C2_3
REMARK    3  A    between atoms: C4_5  and  O2_6
REMARK    4  A    between atoms: C8_11  and  O4_12
REMARK    5  A    between atoms: O4_12  and  C9_13
REMARK    6  A    between atoms: C15_21  and  O7_22
REMARK    7  A    between atoms: O7_22  and  C16_23
REMARK                            x       y       z     vdW  Elec       q    Type
REMARK                         _______ _______ _______ _____ _____    ______ ____
ROOT
ATOM      1  C2  UNL     1      29.204  -9.378 -35.279  0.00  0.00    +0.000 A 
ATOM      2  C3  UNL     1      30.289  -9.766 -36.076  0.00  0.00    +0.000 A 
ATOM      3  C4  UNL     1      30.148  -9.959 -37.451  0.00  0.00    +0.000 A 
ATOM      4  C5  UNL     1      28.901  -9.680 -38.077  0.00  0.00    +0.000 A 
ATOM      5  C6  UNL     1      28.701  -9.706 -39.480  0.00  0.00    +0.000 A 
ATOM      6  O3  UNL     1      29.661  -9.883 -40.275  0.00  0.00    +0.000 OA
ATOM      7  C7  UNL     1      27.418  -9.484 -40.010  0.00  0.00    +0.000 A 
ATOM      8  C8  UNL     1      27.192  -9.472 -41.513  0.00  0.00    +0.000 C 
ATOM      9  C10 UNL     1      25.725  -9.506 -41.871  0.00  0.00    +0.000 C 
ATOM     10  O5  UNL     1      25.377  -9.814 -43.041  0.00  0.00    +0.000 OA
ATOM     11  C11 UNL     1      24.694  -9.130 -40.892  0.00  0.00    +0.000 C 
ATOM     12  C12 UNL     1      25.005  -8.963 -39.608  0.00  0.00    +0.000 C 
ATOM     13  C13 UNL     1      26.375  -9.186 -39.119  0.00  0.00    +0.000 A 
ATOM     14  O6  UNL     1      26.607  -9.103 -37.818  0.00  0.00    +0.000 OA
ATOM     15  C14 UNL     1      27.794  -9.315 -37.263  0.00  0.00    +0.000 A 
ATOM     16  C15 UNL     1      27.949  -9.169 -35.863  0.00  0.00    +0.000 A 
ENDROOT
BRANCH   1  18
ATOM     17  C1  UNL     1      30.407  -9.692 -33.104  0.00  0.00    +0.000 C 
ATOM     18  O1  UNL     1      29.329  -9.197 -33.891  0.00  0.00    +0.000 OA
ENDBRANCH   1  18
BRANCH   3  19
ATOM     19  O2  UNL     1      31.266 -10.456 -38.127  0.00  0.00    +0.000 OA
ATOM     20  H5  UNL     1      32.206 -10.443 -37.761  0.00  0.00    +0.000 HD
ENDBRANCH   3  19
BRANCH   8  21
ATOM     21  O4  UNL     1      27.763  -8.284 -42.035  0.00  0.00    +0.000 OA
ATOM     22  C9  UNL     1      28.526  -8.558 -43.191  0.00  0.00    +0.000 C 
ENDBRANCH   8  21
BRANCH  16  23
ATOM     23  O7  UNL     1      26.899  -8.808 -34.993  0.00  0.00    +0.000 OA
ATOM     24  C16 UNL     1      25.938  -9.683 -34.413  0.00  0.00    +0.000 C 
ENDBRANCH  16  23
TORSDOF 4
ENDMDL
MODEL 4
REMARK VINA RESULT:    -5.032      1.881      6.324
REMARK INTER + INTRA:          -6.300
REMARK INTER:                  -6.047
REMARK INTRA:                  -0.253
REMARK UNBOUND:                -0.238
REMARK  Name = resultss/4CJN/ligands/lig_309_t1.pdb
REMARK  7 active torsions:
REMARK  status: ('A' for Active; 'I' for Inactive)
REMARK    1  A    between atoms: C1_1  and  O1_2
REMARK    2  A    between atoms: O1_2  and  C2_3
REMARK    3  A    between atoms: C4_5  and  O2_6
REMARK    4  A    between atoms: C8_11  and  O4_12
REMARK    5  A    between atoms: O4_12  and  C9_13
REMARK    6  A    between atoms: C15_21  and  O7_22
REMARK    7  A    between atoms: O7_22  and  C16_23
REMARK                            x       y       z     vdW  Elec       q    Type
REMARK                         _______ _______ _______ _____ _____    ______ ____
ROOT
ATOM      1  C2  UNL     1      27.082  -9.131 -41.999  0.00  0.00    +0.000 A 
ATOM      2  C3  UNL     1      25.782  -9.101 -41.475  0.00  0.00    +0.000 A 
ATOM      3  C4  UNL     1      25.550  -9.199 -40.103  0.00  0.00    +0.000 A 
ATOM      4  C5  UNL     1      26.651  -9.249 -39.204  0.00  0.00    +0.000 A 
ATOM      5  C6  UNL     1      26.520  -9.203 -37.793  0.00  0.00    +0.000 A 
ATOM      6  O3  UNL     1      25.403  -9.011 -37.246  0.00  0.00    +0.000 OA
ATOM      7  C7  UNL     1      27.658  -9.327 -36.977  0.00  0.00    +0.000 A 
ATOM      8  C8  UNL     1      27.540  -9.244 -35.465  0.00  0.00    +0.000 C 
ATOM      9  C10 UNL     1      28.807  -9.683 -34.767  0.00  0.00    +0.000 C 
ATOM     10  O5  UNL     1      28.774  -9.971 -33.542  0.00  0.00    +0.000 OA
ATOM     11  C11 UNL     1      30.092  -9.725 -35.481  0.00  0.00    +0.000 C 
ATOM     12  C12 UNL     1      30.140  -9.592 -36.805  0.00  0.00    +0.000 C 
ATOM     13  C13 UNL     1      28.911  -9.439 -37.600  0.00  0.00    +0.000 A 
ATOM     14  O6  UNL     1      29.009  -9.412 -38.921  0.00  0.00    +0.000 OA
ATOM     15  C14 UNL     1      27.968  -9.309 -39.738  0.00  0.00    +0.000 A 
ATOM     16  C15 UNL     1      28.178  -9.254 -41.138  0.00  0.00    +0.000 A 
ENDROOT
BRANCH   1  18
ATOM     17  C1  UNL     1      27.282  -7.849 -44.142  0.00  0.00    +0.000 C 
ATOM     18  O1  UNL     1      27.327  -9.050 -43.380  0.00  0.00    +0.000 OA
ENDBRANCH   1  18
BRANCH   3  19
ATOM     19  O2  UNL     1      24.213  -9.274 -39.702  0.00  0.00    +0.000 OA
ATOM     20  H5  UNL     1      23.856  -9.934 -39.027  0.00  0.00    +0.000 HD
ENDBRANCH   3  19
BRANCH   8  21
ATOM     21  O4  UNL     1      27.269  -7.897 -35.117  0.00  0.00    +0.000 OA
ATOM     22  C9  UNL     1      26.238  -7.823 -34.156  0.00  0.00    +0.000 C 
ENDBRANCH   8  21
BRANCH  16  23
ATOM     23  O7  UNL     1      29.452  -9.307 -41.740  0.00  0.00    +0.000 OA
ATOM     24  C16 UNL     1      30.208 -10.478 -42.029  0.00  0.00    +0.000 C 
ENDBRANCH  16  23
TORSDOF 4
ENDMDL
MODEL 5
REMARK VINA RESULT:    -4.957      2.370      7.426
REMARK INTER + INTRA:          -6.210
REMARK INTER:                  -5.975
REMARK INTRA:                  -0.235
REMARK UNBOUND:                -0.238
REMARK  Name = resultss/4CJN/ligands/lig_309_t1.pdb
REMARK  7 active torsions:
REMARK  status: ('A' for Active; 'I' for Inactive)
REMARK    1  A    between atoms: C1_1  and  O1_2
REMARK    2  A    between atoms: O1_2  and  C2_3
REMARK    3  A    between atoms: C4_5  and  O2_6
REMARK    4  A    between atoms: C8_11  and  O4_12
REMARK    5  A    between atoms: O4_12  and  C9_13
REMARK    6  A    between atoms: C15_21  and  O7_22
REMARK    7  A    between atoms: O7_22  and  C16_23
REMARK                            x       y       z     vdW  Elec       q    Type
REMARK                         _______ _______ _______ _____ _____    ______ ____
ROOT
ATOM      1  C2  UNL     1      29.404 -10.371 -40.568  0.00  0.00    +0.000 A 
ATOM      2  C3  UNL     1      30.644  -9.937 -40.082  0.00  0.00    +0.000 A 
ATOM      3  C4  UNL     1      30.792  -9.482 -38.771  0.00  0.00    +0.000 A 
ATOM      4  C5  UNL     1      29.685  -9.532 -37.879  0.00  0.00    +0.000 A 
ATOM      5  C6  UNL     1      29.771  -9.230 -36.497  0.00  0.00    +0.000 A 
ATOM      6  O3  UNL     1      30.879  -8.992 -35.948  0.00  0.00    +0.000 OA
ATOM      7  C7  UNL     1      28.612  -9.240 -35.702  0.00  0.00    +0.000 A 
ATOM      8  C8  UNL     1      28.693  -8.954 -34.211  0.00  0.00    +0.000 C 
ATOM      9  C10 UNL     1      27.330  -8.729 -33.598  0.00  0.00    +0.000 C 
ATOM     10  O5  UNL     1      27.240  -8.181 -32.468  0.00  0.00    +0.000 OA
ATOM     11  C11 UNL     1      26.107  -9.189 -34.272  0.00  0.00    +0.000 C 
ATOM     12  C12 UNL     1      26.145  -9.617 -35.533  0.00  0.00    +0.000 C 
ATOM     13  C13 UNL     1      27.398  -9.606 -36.304  0.00  0.00    +0.000 A 
ATOM     14  O6  UNL     1      27.360  -9.948 -37.583  0.00  0.00    +0.000 OA
ATOM     15  C14 UNL     1      28.420  -9.945 -38.382  0.00  0.00    +0.000 A 
ATOM     16  C15 UNL     1      28.283 -10.360 -39.729  0.00  0.00    +0.000 A 
ENDROOT
BRANCH   1  18
ATOM     17  C1  UNL     1      30.049 -10.409 -42.989  0.00  0.00    +0.000 C 
ATOM     18  O1  UNL     1      29.239 -10.815 -41.891  0.00  0.00    +0.000 OA
ENDBRANCH   1  18
BRANCH   3  19
ATOM     19  O2  UNL     1      32.045  -8.966 -38.429  0.00  0.00    +0.000 OA
ATOM     20  H5  UNL     1      32.563  -8.306 -38.991  0.00  0.00    +0.000 HD
ENDBRANCH   3  19
BRANCH   8  21
ATOM     21  O4  UNL     1      29.300 -10.069 -33.581  0.00  0.00    +0.000 OA
ATOM     22  C9  UNL     1      30.301  -9.654 -32.678  0.00  0.00    +0.000 C 
ENDBRANCH   8  21
BRANCH  16  23
ATOM     23  O7  UNL     1      27.064 -10.784 -40.297  0.00  0.00    +0.000 OA
ATOM     24  C16 UNL     1      26.038  -9.951 -40.827  0.00  0.00    +0.000 C 
ENDBRANCH  16  23
TORSDOF 4
ENDMDL
MODEL 6
REMARK VINA RESULT:    -4.899      1.331      6.126
REMARK INTER + INTRA:          -6.140
REMARK INTER:                  -5.885
REMARK INTRA:                  -0.255
REMARK UNBOUND:                -0.238
REMARK  Name = resultss/4CJN/ligands/lig_309_t1.pdb
REMARK  7 active torsions:
REMARK  status: ('A' for Active; 'I' for Inactive)
REMARK    1  A    between atoms: C1_1  and  O1_2
REMARK    2  A    between atoms: O1_2  and  C2_3
REMARK    3  A    between atoms: C4_5  and  O2_6
REMARK    4  A    between atoms: C8_11  and  O4_12
REMARK    5  A    between atoms: O4_12  and  C9_13
REMARK    6  A    between atoms: C15_21  and  O7_22
REMARK    7  A    between atoms: O7_22  and  C16_23
REMARK                            x       y       z     vdW  Elec       q    Type
REMARK                         _______ _______ _______ _____ _____    ______ ____
ROOT
ATOM      1  C2  UNL     1      27.221  -9.382 -41.585  0.00  0.00    +0.000 A 
ATOM      2  C3  UNL     1      25.946  -8.806 -41.665  0.00  0.00    +0.000 A 
ATOM      3  C4  UNL     1      25.187  -8.559 -40.521  0.00  0.00    +0.000 A 
ATOM      4  C5  UNL     1      25.743  -8.819 -39.237  0.00  0.00    +0.000 A 
ATOM      5  C6  UNL     1      25.111  -8.467 -38.018  0.00  0.00    +0.000 A 
ATOM      6  O3  UNL     1      24.042  -7.801 -38.005  0.00  0.00    +0.000 OA
ATOM      7  C7  UNL     1      25.700  -8.822 -36.793  0.00  0.00    +0.000 A 
ATOM      8  C8  UNL     1      25.054  -8.422 -35.477  0.00  0.00    +0.000 C 
ATOM      9  C10 UNL     1      25.673  -9.133 -34.296  0.00  0.00    +0.000 C 
ATOM     10  O5  UNL     1      25.063  -9.158 -33.195  0.00  0.00    +0.000 OA
ATOM     11  C11 UNL     1      27.004  -9.751 -34.393  0.00  0.00    +0.000 C 
ATOM     12  C12 UNL     1      27.604  -9.892 -35.573  0.00  0.00    +0.000 C 
ATOM     13  C13 UNL     1      26.943  -9.476 -36.820  0.00  0.00    +0.000 A 
ATOM     14  O6  UNL     1      27.542  -9.731 -37.973  0.00  0.00    +0.000 OA
ATOM     15  C14 UNL     1      27.025  -9.430 -39.159  0.00  0.00    +0.000 A 
ATOM     16  C15 UNL     1      27.759  -9.713 -40.336  0.00  0.00    +0.000 A 
ENDROOT
BRANCH   1  18
ATOM     17  C1  UNL     1      28.825  -8.705 -43.386  0.00  0.00    +0.000 C 
ATOM     18  O1  UNL     1      27.988  -9.651 -42.731  0.00  0.00    +0.000 OA
ENDBRANCH   1  18
BRANCH   3  19
ATOM     19  O2  UNL     1      23.886  -8.090 -40.726  0.00  0.00    +0.000 OA
ATOM     20  H5  UNL     1      23.360  -7.557 -40.051  0.00  0.00    +0.000 HD
ENDBRANCH   3  19
BRANCH   8  21
ATOM     21  O4  UNL     1      25.223  -7.025 -35.310  0.00  0.00    +0.000 OA
ATOM     22  C9  UNL     1      24.028  -6.423 -34.861  0.00  0.00    +0.000 C 
ENDBRANCH   8  21
BRANCH  16  23
ATOM     23  O7  UNL     1      29.034 -10.315 -40.337  0.00  0.00    +0.000 OA
ATOM     24  C16 UNL     1      30.277  -9.676 -40.065  0.00  0.00    +0.000 C 
ENDBRANCH  16  23
TORSDOF 4
ENDMDL
MODEL 7
REMARK VINA RESULT:    -4.873      1.905      6.229
REMARK INTER + INTRA:          -6.109
REMARK INTER:                  -5.836
REMARK INTRA:                  -0.273
REMARK UNBOUND:                -0.238
REMARK  Name = resultss/4CJN/ligands/lig_309_t1.pdb
REMARK  7 active torsions:
REMARK  status: ('A' for Active; 'I' for Inactive)
REMARK    1  A    between atoms: C1_1  and  O1_2
REMARK    2  A    between atoms: O1_2  and  C2_3
REMARK    3  A    between atoms: C4_5  and  O2_6
REMARK    4  A    between atoms: C8_11  and  O4_12
REMARK    5  A    between atoms: O4_12  and  C9_13
REMARK    6  A    between atoms: C15_21  and  O7_22
REMARK    7  A    between atoms: O7_22  and  C16_23
REMARK                            x       y       z     vdW  Elec       q    Type
REMARK                         _______ _______ _______ _____ _____    ______ ____
ROOT
ATOM      1  C2  UNL     1      25.966  -8.668 -40.029  0.00  0.00    +0.000 A 
ATOM      2  C3  UNL     1      24.886  -8.461 -39.160  0.00  0.00    +0.000 A 
ATOM      3  C4  UNL     1      25.042  -8.539 -37.776  0.00  0.00    +0.000 A 
ATOM      4  C5  UNL     1      26.336  -8.751 -37.224  0.00  0.00    +0.000 A 
ATOM      5  C6  UNL     1      26.619  -8.701 -35.836  0.00  0.00    +0.000 A 
ATOM      6  O3  UNL     1      25.740  -8.359 -35.002  0.00  0.00    +0.000 OA
ATOM      7  C7  UNL     1      27.914  -8.990 -35.372  0.00  0.00    +0.000 A 
ATOM      8  C8  UNL     1      28.243  -8.906 -33.891  0.00  0.00    +0.000 C 
ATOM      9  C10 UNL     1      29.584  -9.524 -33.567  0.00  0.00    +0.000 C 
ATOM     10  O5  UNL     1      29.862  -9.816 -32.375  0.00  0.00    +0.000 OA
ATOM     11  C11 UNL     1      30.594  -9.739 -34.613  0.00  0.00    +0.000 C 
ATOM     12  C12 UNL     1      30.282  -9.601 -35.900  0.00  0.00    +0.000 C 
ATOM     13  C13 UNL     1      28.911  -9.271 -36.320  0.00  0.00    +0.000 A 
ATOM     14  O6  UNL     1      28.632  -9.244 -37.615  0.00  0.00    +0.000 OA
ATOM     15  C14 UNL     1      27.425  -8.990 -38.107  0.00  0.00    +0.000 A 
ATOM     16  C15 UNL     1      27.234  -8.951 -39.510  0.00  0.00    +0.000 A 
ENDROOT
BRANCH   1  18
ATOM     17  C1  UNL     1      25.207  -9.622 -42.218  0.00  0.00    +0.000 C 
ATOM     18  O1  UNL     1      25.817  -8.609 -41.425  0.00  0.00    +0.000 OA
ENDBRANCH   1  18
BRANCH   3  19
ATOM     19  O2  UNL     1      23.877  -8.430 -37.011  0.00  0.00    +0.000 OA
ATOM     20  H5  UNL     1      22.949  -8.332 -37.396  0.00  0.00    +0.000 HD
ENDBRANCH   3  19
BRANCH   8  21
ATOM     21  O4  UNL     1      28.269  -7.538 -33.522  0.00  0.00    +0.000 OA
ATOM     22  C9  UNL     1      27.621  -7.337 -32.285  0.00  0.00    +0.000 C 
ENDBRANCH   8  21
BRANCH  16  23
ATOM     23  O7  UNL     1      28.265  -9.175 -40.446  0.00  0.00    +0.000 OA
ATOM     24  C16 UNL     1      28.761 -10.438 -40.878  0.00  0.00    +0.000 C 
ENDBRANCH  16  23
TORSDOF 4
ENDMDL
MODEL 8
REMARK VINA RESULT:    -4.771      1.966      2.826
REMARK INTER + INTRA:          -5.986
REMARK INTER:                  -5.732
REMARK INTRA:                  -0.254
REMARK UNBOUND:                -0.238
REMARK  Name = resultss/4CJN/ligands/lig_309_t1.pdb
REMARK  7 active torsions:
REMARK  status: ('A' for Active; 'I' for Inactive)
REMARK    1  A    between atoms: C1_1  and  O1_2
REMARK    2  A    between atoms: O1_2  and  C2_3
REMARK    3  A    between atoms: C4_5  and  O2_6
REMARK    4  A    between atoms: C8_11  and  O4_12
REMARK    5  A    between atoms: O4_12  and  C9_13
REMARK    6  A    between atoms: C15_21  and  O7_22
REMARK    7  A    between atoms: O7_22  and  C16_23
REMARK                            x       y       z     vdW  Elec       q    Type
REMARK                         _______ _______ _______ _____ _____    ______ ____
ROOT
ATOM      1  C2  UNL     1      28.427  -9.836 -34.847  0.00  0.00    +0.000 A 
ATOM      2  C3  UNL     1      27.039  -9.650 -34.885  0.00  0.00    +0.000 A 
ATOM      3  C4  UNL     1      26.386  -9.296 -36.066  0.00  0.00    +0.000 A 
ATOM      4  C5  UNL     1      27.124  -9.198 -37.278  0.00  0.00    +0.000 A 
ATOM      5  C6  UNL     1      26.532  -8.988 -38.548  0.00  0.00    +0.000 A 
ATOM      6  O3  UNL     1      25.281  -8.974 -38.691  0.00  0.00    +0.000 OA
ATOM      7  C7  UNL     1      27.343  -8.837 -39.686  0.00  0.00    +0.000 A 
ATOM      8  C8  UNL     1      26.723  -8.646 -41.060  0.00  0.00    +0.000 C 
ATOM      9  C10 UNL     1      27.741  -8.220 -42.092  0.00  0.00    +0.000 C 
ATOM     10  O5  UNL     1      27.351  -7.723 -43.182  0.00  0.00    +0.000 OA
ATOM     11  C11 UNL     1      29.180  -8.425 -41.872  0.00  0.00    +0.000 C 
ATOM     12  C12 UNL     1      29.640  -8.788 -40.676  0.00  0.00    +0.000 C 
ATOM     13  C13 UNL     1      28.733  -8.955 -39.529  0.00  0.00    +0.000 A 
ATOM     14  O6  UNL     1      29.255  -9.219 -38.340  0.00  0.00    +0.000 OA
ATOM     15  C14 UNL     1      28.537  -9.359 -37.232  0.00  0.00    +0.000 A 
ATOM     16  C15 UNL     1      29.185  -9.674 -36.013  0.00  0.00    +0.000 A 
ENDROOT
BRANCH   1  18
ATOM     17  C1  UNL     1      29.496  -9.246 -32.659  0.00  0.00    +0.000 C 
ATOM     18  O1  UNL     1      29.098 -10.177 -33.660  0.00  0.00    +0.000 OA
ENDBRANCH   1  18
BRANCH   3  19
ATOM     19  O2  UNL     1      25.018  -9.024 -35.963  0.00  0.00    +0.000 OA
ATOM     20  H5  UNL     1      24.530  -8.879 -35.092  0.00  0.00    +0.000 HD
ENDBRANCH   3  19
BRANCH   8  21
ATOM     21  O4  UNL     1      26.154  -9.881 -41.462  0.00  0.00    +0.000 OA
ATOM     22  C9  UNL     1      24.893  -9.682 -42.063  0.00  0.00    +0.000 C 
ENDBRANCH   8  21
BRANCH  16  23
ATOM     23  O7  UNL     1      30.578  -9.850 -35.890  0.00  0.00    +0.000 OA
ATOM     24  C16 UNL     1      31.558  -8.823 -35.771  0.00  0.00    +0.000 C 
ENDBRANCH  16  23
TORSDOF 4
ENDMDL
MODEL 9
REMARK VINA RESULT:    -4.586      2.341      7.252
REMARK INTER + INTRA:          -5.763
REMARK INTER:                  -5.484
REMARK INTRA:                  -0.280
REMARK UNBOUND:                -0.238
REMARK  Name = resultss/4CJN/ligands/lig_309_t1.pdb
REMARK  7 active torsions:
REMARK  status: ('A' for Active; 'I' for Inactive)
REMARK    1  A    between atoms: C1_1  and  O1_2
REMARK    2  A    between atoms: O1_2  and  C2_3
REMARK    3  A    between atoms: C4_5  and  O2_6
REMARK    4  A    between atoms: C8_11  and  O4_12
REMARK    5  A    between atoms: O4_12  and  C9_13
REMARK    6  A    between atoms: C15_21  and  O7_22
REMARK    7  A    between atoms: O7_22  and  C16_23
REMARK                            x       y       z     vdW  Elec       q    Type
REMARK                         _______ _______ _______ _____ _____    ______ ____
ROOT
ATOM      1  C2  UNL     1      27.846  -9.897 -40.116  0.00  0.00    +0.000 A 
ATOM      2  C3  UNL     1      29.232 -10.045 -39.967  0.00  0.00    +0.000 A 
ATOM      3  C4  UNL     1      29.861  -9.804 -38.745  0.00  0.00    +0.000 A 
ATOM      4  C5  UNL     1      29.079  -9.480 -37.602  0.00  0.00    +0.000 A 
ATOM      5  C6  UNL     1      29.608  -9.360 -36.292  0.00  0.00    +0.000 A 
ATOM      6  O3  UNL     1      30.811  -9.638 -36.046  0.00  0.00    +0.000 OA
ATOM      7  C7  UNL     1      28.774  -8.970 -35.230  0.00  0.00    +0.000 A 
ATOM      8  C8  UNL     1      29.317  -8.872 -33.814  0.00  0.00    +0.000 C 
ATOM      9  C10 UNL     1      28.358  -8.170 -32.881  0.00  0.00    +0.000 C 
ATOM     10  O5  UNL     1      28.773  -7.732 -31.776  0.00  0.00    +0.000 OA
ATOM     11  C11 UNL     1      26.932  -8.036 -33.216  0.00  0.00    +0.000 C 
ATOM     12  C12 UNL     1      26.489  -8.332 -34.436  0.00  0.00    +0.000 C 
ATOM     13  C13 UNL     1      27.412  -8.761 -35.499  0.00  0.00    +0.000 A 
ATOM     14  O6  UNL     1      26.933  -8.946 -36.720  0.00  0.00    +0.000 OA
ATOM     15  C14 UNL     1      27.677  -9.301 -37.761  0.00  0.00    +0.000 A 
ATOM     16  C15 UNL     1      27.065  -9.508 -39.022  0.00  0.00    +0.000 A 
ENDROOT
BRANCH   1  18
ATOM     17  C1  UNL     1      27.300  -9.263 -42.477  0.00  0.00    +0.000 C 
ATOM     18  O1  UNL     1      27.203 -10.120 -41.345  0.00  0.00    +0.000 OA
ENDBRANCH   1  18
BRANCH   3  19
ATOM     19  O2  UNL     1      31.257  -9.870 -38.740  0.00  0.00    +0.000 OA
ATOM     20  H5  UNL     1      31.792 -10.661 -39.067  0.00  0.00    +0.000 HD
ENDBRANCH   3  19
BRANCH   8  21
ATOM     21  O4  UNL     1      29.541 -10.187 -33.336  0.00  0.00    +0.000 OA
ATOM     22  C9  UNL     1      30.810 -10.293 -32.728  0.00  0.00    +0.000 C 
ENDBRANCH   8  21
BRANCH  16  23
ATOM     23  O7  UNL     1      25.683  -9.352 -39.255  0.00  0.00    +0.000 OA
ATOM     24  C16 UNL     1      24.997  -8.132 -39.516  0.00  0.00    +0.000 C 
ENDBRANCH  16  23
TORSDOF 4
ENDMDL
