MODEL 1
REMARK VINA RESULT:    -5.641      0.000      0.000
REMARK INTER + INTRA:         -10.278
REMARK INTER:                  -9.269
REMARK INTRA:                  -1.009
REMARK UNBOUND:                -1.009
REMARK  Name = resultss/4CJN/ligands/lig_137_t0.pdb
REMARK  13 active torsions:
REMARK  status: ('A' for Active; 'I' for Inactive)
REMARK    1  A    between atoms: O1_1  and  C1_2
REMARK    2  A    between atoms: C1_2  and  C2_3
REMARK    3  A    between atoms: C3_4  and  O2_5
REMARK    4  A    between atoms: C4_6  and  O3_7
REMARK    5  A    between atoms: C5_8  and  O4_9
REMARK    6  A    between atoms: N1_11  and  C7_12
REMARK    7  A    between atoms: C7_12  and  C8_13
REMARK    8  A    between atoms: C8_13  and  C9_14
REMARK    9  A    between atoms: C9_14  and  C10_15
REMARK   10  A    between atoms: C10_15  and  C11_16
REMARK   11  A    between atoms: C11_16  and  O5_17
REMARK   12  A    between atoms: O5_17  and  C12_18
REMARK   13  A    between atoms: C12_18  and  C13_19
REMARK                            x       y       z     vdW  Elec       q    Type
REMARK                         _______ _______ _______ _____ _____    ______ ____
ROOT
ATOM      1  C7  UNL     1      27.628  -6.344 -44.941  0.00  0.00    +0.000 C 
ENDROOT
BRANCH   1   7
ATOM      2  C2  UNL     1      25.857  -7.028 -46.536  0.00  0.00    +0.000 C 
ATOM      3  C3  UNL     1      24.323  -7.039 -46.822  0.00  0.00    +0.000 C 
ATOM      4  C4  UNL     1      23.516  -7.493 -45.596  0.00  0.00    +0.000 C 
ATOM      5  C5  UNL     1      23.892  -6.631 -44.386  0.00  0.00    +0.000 C 
ATOM      6  C6  UNL     1      25.397  -6.758 -44.133  0.00  0.00    +0.000 C 
ATOM      7  N1  UNL     1      26.183  -6.261 -45.289  0.00  0.00    +0.000 NA
BRANCH   3   8
ATOM      8  O2  UNL     1      24.053  -7.908 -47.895  0.00  0.00    +0.000 OA
ATOM      9  H6  UNL     1      23.558  -8.683 -47.522  0.00  0.00    +0.000 HD
ENDBRANCH   3   8
BRANCH   4  10
ATOM     10  O3  UNL     1      22.132  -7.428 -45.844  0.00  0.00    +0.000 OA
ATOM     11  H8  UNL     1      21.789  -6.589 -45.435  0.00  0.00    +0.000 HD
ENDBRANCH   4  10
BRANCH   5  12
ATOM     12  O4  UNL     1      23.153  -7.015 -43.250  0.00  0.00    +0.000 OA
ATOM     13  H10 UNL     1      23.709  -7.649 -42.727  0.00  0.00    +0.000 HD
ENDBRANCH   5  12
BRANCH   2  14
ATOM     14  C1  UNL     1      26.561  -6.427 -47.786  0.00  0.00    +0.000 C 
BRANCH  14  15
ATOM     15  O1  UNL     1      26.880  -7.434 -48.713  0.00  0.00    +0.000 OA
ATOM     16  H1  UNL     1      27.578  -8.001 -48.293  0.00  0.00    +0.000 HD
ENDBRANCH  14  15
ENDBRANCH   2  14
ENDBRANCH   1   7
BRANCH   1  17
ATOM     17  C8  UNL     1      28.009  -7.761 -44.482  0.00  0.00    +0.000 C 
BRANCH  17  18
ATOM     18  C9  UNL     1      28.767  -7.719 -43.146  0.00  0.00    +0.000 C 
BRANCH  18  19
ATOM     19  C10 UNL     1      28.197  -8.692 -42.101  0.00  0.00    +0.000 C 
BRANCH  19  20
ATOM     20  C11 UNL     1      29.273  -9.451 -41.303  0.00  0.00    +0.000 C 
BRANCH  20  21
ATOM     21  O5  UNL     1      30.411  -9.743 -42.093  0.00  0.00    +0.000 OA
BRANCH  21  22
ATOM     22  C12 UNL     1      30.396 -11.076 -42.580  0.00  0.00    +0.000 C 
BRANCH  22  23
ATOM     23  C13 UNL     1      31.734 -11.422 -43.275  0.00  0.00    +0.000 C 
ATOM     24  C14 UNL     1      32.940 -10.999 -42.389  0.00  0.00    +0.000 C 
ATOM     25  C15 UNL     1      34.268 -11.338 -43.103  0.00  0.00    +0.000 C 
ATOM     26  C16 UNL     1      34.336 -12.858 -43.368  0.00  0.00    +0.000 C 
ATOM     27  C17 UNL     1      33.153 -13.282 -44.266  0.00  0.00    +0.000 C 
ATOM     28  C18 UNL     1      33.223 -12.519 -45.607  0.00  0.00    +0.000 C 
ATOM     29  C19 UNL     1      33.153 -10.999 -45.341  0.00  0.00    +0.000 C 
ATOM     30  C20 UNL     1      34.338 -10.577 -44.444  0.00  0.00    +0.000 C 
ATOM     31  C21 UNL     1      31.825 -10.662 -44.630  0.00  0.00    +0.000 C 
ATOM     32  C22 UNL     1      31.824 -12.949 -43.553  0.00  0.00    +0.000 C 
ENDBRANCH  22  23
ENDBRANCH  21  22
ENDBRANCH  20  21
ENDBRANCH  19  20
ENDBRANCH  18  19
ENDBRANCH  17  18
ENDBRANCH   1  17
TORSDOF 13
ENDMDL
MODEL 2
REMARK VINA RESULT:    -5.620      6.595      9.663
REMARK INTER + INTRA:         -10.243
REMARK INTER:                  -8.480
REMARK INTRA:                  -1.763
REMARK UNBOUND:                -1.009
REMARK  Name = resultss/4CJN/ligands/lig_137_t0.pdb
REMARK  13 active torsions:
REMARK  status: ('A' for Active; 'I' for Inactive)
REMARK    1  A    between atoms: O1_1  and  C1_2
REMARK    2  A    between atoms: C1_2  and  C2_3
REMARK    3  A    between atoms: C3_4  and  O2_5
REMARK    4  A    between atoms: C4_6  and  O3_7
REMARK    5  A    between atoms: C5_8  and  O4_9
REMARK    6  A    between atoms: N1_11  and  C7_12
REMARK    7  A    between atoms: C7_12  and  C8_13
REMARK    8  A    between atoms: C8_13  and  C9_14
REMARK    9  A    between atoms: C9_14  and  C10_15
REMARK   10  A    between atoms: C10_15  and  C11_16
REMARK   11  A    between atoms: C11_16  and  O5_17
REMARK   12  A    between atoms: O5_17  and  C12_18
REMARK   13  A    between atoms: C12_18  and  C13_19
REMARK                            x       y       z     vdW  Elec       q    Type
REMARK                         _______ _______ _______ _____ _____    ______ ____
ROOT
ATOM      1  C7  UNL     1      24.826  -8.046 -38.413  0.00  0.00    +0.000 C 
ENDROOT
BRANCH   1   7
ATOM      2  C2  UNL     1      25.856  -8.917 -40.494  0.00  0.00    +0.000 C 
ATOM      3  C3  UNL     1      26.767 -10.026 -41.108  0.00  0.00    +0.000 C 
ATOM      4  C4  UNL     1      28.045 -10.237 -40.282  0.00  0.00    +0.000 C 
ATOM      5  C5  UNL     1      27.675 -10.510 -38.821  0.00  0.00    +0.000 C 
ATOM      6  C6  UNL     1      26.861  -9.329 -38.285  0.00  0.00    +0.000 C 
ATOM      7  N1  UNL     1      25.594  -9.159 -39.038  0.00  0.00    +0.000 NA
BRANCH   3   8
ATOM      8  O2  UNL     1      27.123  -9.666 -42.420  0.00  0.00    +0.000 OA
ATOM      9  H6  UNL     1      26.310  -9.289 -42.848  0.00  0.00    +0.000 HD
ENDBRANCH   3   8
BRANCH   4  10
ATOM     10  O3  UNL     1      28.821 -11.289 -40.805  0.00  0.00    +0.000 OA
ATOM     11  H8  UNL     1      29.585 -10.887 -41.299  0.00  0.00    +0.000 HD
ENDBRANCH   4  10
BRANCH   5  12
ATOM     12  O4  UNL     1      28.829 -10.725 -38.045  0.00  0.00    +0.000 OA
ATOM     13  H10 UNL     1      28.800 -11.658 -37.709  0.00  0.00    +0.000 HD
ENDBRANCH   5  12
BRANCH   2  14
ATOM     14  C1  UNL     1      24.539  -8.884 -41.322  0.00  0.00    +0.000 C 
BRANCH  14  15
ATOM     15  O1  UNL     1      24.366 -10.082 -42.035  0.00  0.00    +0.000 OA
ATOM     16  H1  UNL     1      24.505  -9.868 -42.994  0.00  0.00    +0.000 HD
ENDBRANCH  14  15
ENDBRANCH   2  14
ENDBRANCH   1   7
BRANCH   1  17
ATOM     17  C8  UNL     1      24.871  -8.133 -36.879  0.00  0.00    +0.000 C 
BRANCH  17  18
ATOM     18  C9  UNL     1      23.523  -7.719 -36.268  0.00  0.00    +0.000 C 
BRANCH  18  19
ATOM     19  C10 UNL     1      23.395  -8.095 -34.783  0.00  0.00    +0.000 C 
BRANCH  19  20
ATOM     20  C11 UNL     1      23.681  -6.931 -33.817  0.00  0.00    +0.000 C 
BRANCH  20  21
ATOM     21  O5  UNL     1      24.992  -6.992 -33.286  0.00  0.00    +0.000 OA
BRANCH  21  22
ATOM     22  C12 UNL     1      25.499  -8.318 -33.266  0.00  0.00    +0.000 C 
BRANCH  22  23
ATOM     23  C13 UNL     1      27.010  -8.333 -33.595  0.00  0.00    +0.000 C 
ATOM     24  C14 UNL     1      27.393  -9.631 -34.362  0.00  0.00    +0.000 C 
ATOM     25  C15 UNL     1      28.908  -9.637 -34.670  0.00  0.00    +0.000 C 
ATOM     26  C16 UNL     1      29.262  -8.408 -35.536  0.00  0.00    +0.000 C 
ATOM     27  C17 UNL     1      28.904  -7.115 -34.771  0.00  0.00    +0.000 C 
ATOM     28  C18 UNL     1      29.697  -7.061 -33.448  0.00  0.00    +0.000 C 
ATOM     29  C19 UNL     1      29.340  -8.289 -32.581  0.00  0.00    +0.000 C 
ATOM     30  C20 UNL     1      29.701  -9.582 -33.347  0.00  0.00    +0.000 C 
ATOM     31  C21 UNL     1      27.828  -8.280 -32.272  0.00  0.00    +0.000 C 
ATOM     32  C22 UNL     1      27.390  -7.102 -34.466  0.00  0.00    +0.000 C 
ENDBRANCH  22  23
ENDBRANCH  21  22
ENDBRANCH  20  21
ENDBRANCH  19  20
ENDBRANCH  18  19
ENDBRANCH  17  18
ENDBRANCH   1  17
TORSDOF 13
ENDMDL
MODEL 3
REMARK VINA RESULT:    -5.620      6.545     10.097
REMARK INTER + INTRA:         -10.243
REMARK INTER:                  -8.078
REMARK INTRA:                  -2.165
REMARK UNBOUND:                -1.009
REMARK  Name = resultss/4CJN/ligands/lig_137_t0.pdb
REMARK  13 active torsions:
REMARK  status: ('A' for Active; 'I' for Inactive)
REMARK    1  A    between atoms: O1_1  and  C1_2
REMARK    2  A    between atoms: C1_2  and  C2_3
REMARK    3  A    between atoms: C3_4  and  O2_5
REMARK    4  A    between atoms: C4_6  and  O3_7
REMARK    5  A    between atoms: C5_8  and  O4_9
REMARK    6  A    between atoms: N1_11  and  C7_12
REMARK    7  A    between atoms: C7_12  and  C8_13
REMARK    8  A    between atoms: C8_13  and  C9_14
REMARK    9  A    between atoms: C9_14  and  C10_15
REMARK   10  A    between atoms: C10_15  and  C11_16
REMARK   11  A    between atoms: C11_16  and  O5_17
REMARK   12  A    between atoms: O5_17  and  C12_18
REMARK   13  A    between atoms: C12_18  and  C13_19
REMARK                            x       y       z     vdW  Elec       q    Type
REMARK                         _______ _______ _______ _____ _____    ______ ____
ROOT
ATOM      1  C7  UNL     1      27.890  -7.025 -38.575  0.00  0.00    +0.000 C 
ENDROOT
BRANCH   1   7
ATOM      2  C2  UNL     1      25.897  -7.587 -39.939  0.00  0.00    +0.000 C 
ATOM      3  C3  UNL     1      24.981  -8.739 -40.459  0.00  0.00    +0.000 C 
ATOM      4  C4  UNL     1      25.800  -9.914 -41.013  0.00  0.00    +0.000 C 
ATOM      5  C5  UNL     1      26.808 -10.382 -39.958  0.00  0.00    +0.000 C 
ATOM      6  C6  UNL     1      27.714  -9.207 -39.581  0.00  0.00    +0.000 C 
ATOM      7  N1  UNL     1      26.937  -8.093 -38.985  0.00  0.00    +0.000 NA
BRANCH   3   8
ATOM      8  O2  UNL     1      24.140  -8.247 -41.474  0.00  0.00    +0.000 OA
ATOM      9  H6  UNL     1      23.307  -7.934 -41.033  0.00  0.00    +0.000 HD
ENDBRANCH   3   8
BRANCH   4  10
ATOM     10  O3  UNL     1      24.965 -10.975 -41.410  0.00  0.00    +0.000 OA
ATOM     11  H8  UNL     1      25.283 -11.298 -42.294  0.00  0.00    +0.000 HD
ENDBRANCH   4  10
BRANCH   5  12
ATOM     12  O4  UNL     1      27.561 -11.471 -40.434  0.00  0.00    +0.000 OA
ATOM     13  H10 UNL     1      26.971 -12.269 -40.443  0.00  0.00    +0.000 HD
ENDBRANCH   5  12
BRANCH   2  14
ATOM     14  C1  UNL     1      24.976  -6.520 -39.280  0.00  0.00    +0.000 C 
BRANCH  14  15
ATOM     15  O1  UNL     1      23.675  -7.022 -39.104  0.00  0.00    +0.000 OA
ATOM     16  H1  UNL     1      23.255  -7.051 -40.003  0.00  0.00    +0.000 HD
ENDBRANCH  14  15
ENDBRANCH   2  14
ENDBRANCH   1   7
BRANCH   1  17
ATOM     17  C8  UNL     1      27.979  -6.918 -37.045  0.00  0.00    +0.000 C 
BRANCH  17  18
ATOM     18  C9  UNL     1      29.239  -7.624 -36.518  0.00  0.00    +0.000 C 
BRANCH  18  19
ATOM     19  C10 UNL     1      28.929  -8.708 -35.474  0.00  0.00    +0.000 C 
BRANCH  19  20
ATOM     20  C11 UNL     1      28.272  -9.970 -36.061  0.00  0.00    +0.000 C 
BRANCH  20  21
ATOM     21  O5  UNL     1      26.891 -10.040 -35.757  0.00  0.00    +0.000 OA
BRANCH  21  22
ATOM     22  C12 UNL     1      26.617  -9.647 -34.421  0.00  0.00    +0.000 C 
BRANCH  22  23
ATOM     23  C13 UNL     1      25.419  -8.670 -34.370  0.00  0.00    +0.000 C 
ATOM     24  C14 UNL     1      24.313  -9.205 -33.417  0.00  0.00    +0.000 C 
ATOM     25  C15 UNL     1      23.118  -8.226 -33.388  0.00  0.00    +0.000 C 
ATOM     26  C16 UNL     1      23.597  -6.844 -32.892  0.00  0.00    +0.000 C 
ATOM     27  C17 UNL     1      24.681  -6.296 -33.846  0.00  0.00    +0.000 C 
ATOM     28  C18 UNL     1      24.096  -6.161 -35.268  0.00  0.00    +0.000 C 
ATOM     29  C19 UNL     1      23.619  -7.543 -35.765  0.00  0.00    +0.000 C 
ATOM     30  C20 UNL     1      22.533  -8.088 -34.810  0.00  0.00    +0.000 C 
ATOM     31  C21 UNL     1      24.814  -8.520 -35.796  0.00  0.00    +0.000 C 
ATOM     32  C22 UNL     1      25.879  -7.271 -33.873  0.00  0.00    +0.000 C 
ENDBRANCH  22  23
ENDBRANCH  21  22
ENDBRANCH  20  21
ENDBRANCH  19  20
ENDBRANCH  18  19
ENDBRANCH  17  18
ENDBRANCH   1  17
TORSDOF 13
ENDMDL
MODEL 4
REMARK VINA RESULT:    -5.460      2.798      4.254
REMARK INTER + INTRA:          -9.980
REMARK INTER:                  -8.377
REMARK INTRA:                  -1.603
REMARK UNBOUND:                -1.009
REMARK  Name = resultss/4CJN/ligands/lig_137_t0.pdb
REMARK  13 active torsions:
REMARK  status: ('A' for Active; 'I' for Inactive)
REMARK    1  A    between atoms: O1_1  and  C1_2
REMARK    2  A    between atoms: C1_2  and  C2_3
REMARK    3  A    between atoms: C3_4  and  O2_5
REMARK    4  A    between atoms: C4_6  and  O3_7
REMARK    5  A    between atoms: C5_8  and  O4_9
REMARK    6  A    between atoms: N1_11  and  C7_12
REMARK    7  A    between atoms: C7_12  and  C8_13
REMARK    8  A    between atoms: C8_13  and  C9_14
REMARK    9  A    between atoms: C9_14  and  C10_15
REMARK   10  A    between atoms: C10_15  and  C11_16
REMARK   11  A    between atoms: C11_16  and  O5_17
REMARK   12  A    between atoms: O5_17  and  C12_18
REMARK   13  A    between atoms: C12_18  and  C13_19
REMARK                            x       y       z     vdW  Elec       q    Type
REMARK                         _______ _______ _______ _____ _____    ______ ____
ROOT
ATOM      1  C7  UNL     1      25.759  -6.861 -43.535  0.00  0.00    +0.000 C 
ENDROOT
BRANCH   1   7
ATOM      2  C2  UNL     1      25.713  -7.013 -46.010  0.00  0.00    +0.000 C 
ATOM      3  C3  UNL     1      24.845  -6.813 -47.291  0.00  0.00    +0.000 C 
ATOM      4  C4  UNL     1      23.450  -7.439 -47.140  0.00  0.00    +0.000 C 
ATOM      5  C5  UNL     1      22.778  -6.896 -45.874  0.00  0.00    +0.000 C 
ATOM      6  C6  UNL     1      23.662  -7.220 -44.665  0.00  0.00    +0.000 C 
ATOM      7  N1  UNL     1      24.989  -6.566 -44.775  0.00  0.00    +0.000 NA
BRANCH   3   8
ATOM      8  O2  UNL     1      25.493  -7.402 -48.392  0.00  0.00    +0.000 OA
ATOM      9  H6  UNL     1      25.531  -6.714 -49.108  0.00  0.00    +0.000 HD
ENDBRANCH   3   8
BRANCH   4  10
ATOM     10  O3  UNL     1      22.653  -7.188 -48.273  0.00  0.00    +0.000 OA
ATOM     11  H8  UNL     1      22.273  -8.055 -48.575  0.00  0.00    +0.000 HD
ENDBRANCH   4  10
BRANCH   5  12
ATOM     12  O4  UNL     1      21.490  -7.441 -45.719  0.00  0.00    +0.000 OA
ATOM     13  H10 UNL     1      20.890  -6.991 -46.369  0.00  0.00    +0.000 HD
ENDBRANCH   5  12
BRANCH   2  14
ATOM     14  C1  UNL     1      27.041  -6.229 -46.219  0.00  0.00    +0.000 C 
BRANCH  14  15
ATOM     15  O1  UNL     1      28.007  -7.039 -46.840  0.00  0.00    +0.000 OA
ATOM     16  H1  UNL     1      28.192  -6.636 -47.727  0.00  0.00    +0.000 HD
ENDBRANCH  14  15
ENDBRANCH   2  14
ENDBRANCH   1   7
BRANCH   1  17
ATOM     17  C8  UNL     1      25.391  -5.884 -42.407  0.00  0.00    +0.000 C 
BRANCH  17  18
ATOM     18  C9  UNL     1      25.515  -6.562 -41.033  0.00  0.00    +0.000 C 
BRANCH  18  19
ATOM     19  C10 UNL     1      24.263  -7.363 -40.643  0.00  0.00    +0.000 C 
BRANCH  19  20
ATOM     20  C11 UNL     1      24.440  -8.889 -40.748  0.00  0.00    +0.000 C 
BRANCH  20  21
ATOM     21  O5  UNL     1      25.578  -9.341 -40.035  0.00  0.00    +0.000 OA
BRANCH  21  22
ATOM     22  C12 UNL     1      26.268 -10.369 -40.728  0.00  0.00    +0.000 C 
BRANCH  22  23
ATOM     23  C13 UNL     1      27.674  -9.891 -41.162  0.00  0.00    +0.000 C 
ATOM     24  C14 UNL     1      27.659  -9.408 -42.640  0.00  0.00    +0.000 C 
ATOM     25  C15 UNL     1      29.073  -8.948 -43.061  0.00  0.00    +0.000 C 
ATOM     26  C16 UNL     1      29.531  -7.789 -42.149  0.00  0.00    +0.000 C 
ATOM     27  C17 UNL     1      29.568  -8.268 -40.681  0.00  0.00    +0.000 C 
ATOM     28  C18 UNL     1      30.552  -9.450 -40.549  0.00  0.00    +0.000 C 
ATOM     29  C19 UNL     1      30.093 -10.610 -41.460  0.00  0.00    +0.000 C 
ATOM     30  C20 UNL     1      30.058 -10.129 -42.928  0.00  0.00    +0.000 C 
ATOM     31  C21 UNL     1      28.682 -11.070 -41.036  0.00  0.00    +0.000 C 
ATOM     32  C22 UNL     1      28.155  -8.724 -40.255  0.00  0.00    +0.000 C 
ENDBRANCH  22  23
ENDBRANCH  21  22
ENDBRANCH  20  21
ENDBRANCH  19  20
ENDBRANCH  18  19
ENDBRANCH  17  18
ENDBRANCH   1  17
TORSDOF 13
ENDMDL
MODEL 5
REMARK VINA RESULT:    -5.433      6.487      9.990
REMARK INTER + INTRA:          -9.935
REMARK INTER:                  -7.805
REMARK INTRA:                  -2.130
REMARK UNBOUND:                -1.009
REMARK  Name = resultss/4CJN/ligands/lig_137_t0.pdb
REMARK  13 active torsions:
REMARK  status: ('A' for Active; 'I' for Inactive)
REMARK    1  A    between atoms: O1_1  and  C1_2
REMARK    2  A    between atoms: C1_2  and  C2_3
REMARK    3  A    between atoms: C3_4  and  O2_5
REMARK    4  A    between atoms: C4_6  and  O3_7
REMARK    5  A    between atoms: C5_8  and  O4_9
REMARK    6  A    between atoms: N1_11  and  C7_12
REMARK    7  A    between atoms: C7_12  and  C8_13
REMARK    8  A    between atoms: C8_13  and  C9_14
REMARK    9  A    between atoms: C9_14  and  C10_15
REMARK   10  A    between atoms: C10_15  and  C11_16
REMARK   11  A    between atoms: C11_16  and  O5_17
REMARK   12  A    between atoms: O5_17  and  C12_18
REMARK   13  A    between atoms: C12_18  and  C13_19
REMARK                            x       y       z     vdW  Elec       q    Type
REMARK                         _______ _______ _______ _____ _____    ______ ____
ROOT
ATOM      1  C7  UNL     1      28.569  -7.069 -38.522  0.00  0.00    +0.000 C 
ENDROOT
BRANCH   1   7
ATOM      2  C2  UNL     1      27.502  -8.969 -39.705  0.00  0.00    +0.000 C 
ATOM      3  C3  UNL     1      26.290  -9.419 -40.579  0.00  0.00    +0.000 C 
ATOM      4  C4  UNL     1      24.956  -8.910 -40.011  0.00  0.00    +0.000 C 
ATOM      5  C5  UNL     1      25.025  -7.391 -39.821  0.00  0.00    +0.000 C 
ATOM      6  C6  UNL     1      26.187  -7.060 -38.880  0.00  0.00    +0.000 C 
ATOM      7  N1  UNL     1      27.486  -7.492 -39.452  0.00  0.00    +0.000 NA
BRANCH   3   8
ATOM      8  O2  UNL     1      26.255 -10.823 -40.643  0.00  0.00    +0.000 OA
ATOM      9  H6  UNL     1      25.354 -11.104 -40.333  0.00  0.00    +0.000 HD
ENDBRANCH   3   8
BRANCH   4  10
ATOM     10  O3  UNL     1      23.880  -9.259 -40.848  0.00  0.00    +0.000 OA
ATOM     11  H8  UNL     1      23.509 -10.122 -40.522  0.00  0.00    +0.000 HD
ENDBRANCH   4  10
BRANCH   5  12
ATOM     12  O4  UNL     1      23.808  -6.895 -39.317  0.00  0.00    +0.000 OA
ATOM     13  H10 UNL     1      23.817  -7.012 -38.332  0.00  0.00    +0.000 HD
ENDBRANCH   5  12
BRANCH   2  14
ATOM     14  C1  UNL     1      28.799  -9.417 -40.440  0.00  0.00    +0.000 C 
BRANCH  14  15
ATOM     15  O1  UNL     1      29.176 -10.712 -40.044  0.00  0.00    +0.000 OA
ATOM     16  H1  UNL     1      28.443 -11.321 -40.319  0.00  0.00    +0.000 HD
ENDBRANCH  14  15
ENDBRANCH   2  14
ENDBRANCH   1   7
BRANCH   1  17
ATOM     17  C8  UNL     1      28.105  -7.147 -37.058  0.00  0.00    +0.000 C 
BRANCH  17  18
ATOM     18  C9  UNL     1      29.233  -7.671 -36.154  0.00  0.00    +0.000 C 
BRANCH  18  19
ATOM     19  C10 UNL     1      29.424  -9.193 -36.254  0.00  0.00    +0.000 C 
BRANCH  19  20
ATOM     20  C11 UNL     1      28.189 -10.007 -35.827  0.00  0.00    +0.000 C 
BRANCH  20  21
ATOM     21  O5  UNL     1      27.662  -9.562 -34.590  0.00  0.00    +0.000 OA
BRANCH  21  22
ATOM     22  C12 UNL     1      26.331 -10.008 -34.386  0.00  0.00    +0.000 C 
BRANCH  22  23
ATOM     23  C13 UNL     1      25.348  -8.813 -34.372  0.00  0.00    +0.000 C 
ATOM     24  C14 UNL     1      26.036  -7.541 -33.799  0.00  0.00    +0.000 C 
ATOM     25  C15 UNL     1      25.038  -6.362 -33.778  0.00  0.00    +0.000 C 
ATOM     26  C16 UNL     1      24.548  -6.076 -35.215  0.00  0.00    +0.000 C 
ATOM     27  C17 UNL     1      23.845  -7.328 -35.782  0.00  0.00    +0.000 C 
ATOM     28  C18 UNL     1      22.640  -7.693 -34.889  0.00  0.00    +0.000 C 
ATOM     29  C19 UNL     1      23.130  -7.981 -33.452  0.00  0.00    +0.000 C 
ATOM     30  C20 UNL     1      23.832  -6.726 -32.886  0.00  0.00    +0.000 C 
ATOM     31  C21 UNL     1      24.125  -9.160 -33.475  0.00  0.00    +0.000 C 
ATOM     32  C22 UNL     1      24.842  -8.508 -35.809  0.00  0.00    +0.000 C 
ENDBRANCH  22  23
ENDBRANCH  21  22
ENDBRANCH  20  21
ENDBRANCH  19  20
ENDBRANCH  18  19
ENDBRANCH  17  18
ENDBRANCH   1  17
TORSDOF 13
ENDMDL
MODEL 6
REMARK VINA RESULT:    -5.400      1.564      2.508
REMARK INTER + INTRA:          -9.880
REMARK INTER:                  -8.710
REMARK INTRA:                  -1.171
REMARK UNBOUND:                -1.009
REMARK  Name = resultss/4CJN/ligands/lig_137_t0.pdb
REMARK  13 active torsions:
REMARK  status: ('A' for Active; 'I' for Inactive)
REMARK    1  A    between atoms: O1_1  and  C1_2
REMARK    2  A    between atoms: C1_2  and  C2_3
REMARK    3  A    between atoms: C3_4  and  O2_5
REMARK    4  A    between atoms: C4_6  and  O3_7
REMARK    5  A    between atoms: C5_8  and  O4_9
REMARK    6  A    between atoms: N1_11  and  C7_12
REMARK    7  A    between atoms: C7_12  and  C8_13
REMARK    8  A    between atoms: C8_13  and  C9_14
REMARK    9  A    between atoms: C9_14  and  C10_15
REMARK   10  A    between atoms: C10_15  and  C11_16
REMARK   11  A    between atoms: C11_16  and  O5_17
REMARK   12  A    between atoms: O5_17  and  C12_18
REMARK   13  A    between atoms: C12_18  and  C13_19
REMARK                            x       y       z     vdW  Elec       q    Type
REMARK                         _______ _______ _______ _____ _____    ______ ____
ROOT
ATOM      1  C7  UNL     1      28.017  -7.847 -42.814  0.00  0.00    +0.000 C 
ENDROOT
BRANCH   1   7
ATOM      2  C2  UNL     1      25.937  -7.792 -44.163  0.00  0.00    +0.000 C 
ATOM      3  C3  UNL     1      24.379  -7.710 -44.116  0.00  0.00    +0.000 C 
ATOM      4  C4  UNL     1      23.787  -8.680 -43.082  0.00  0.00    +0.000 C 
ATOM      5  C5  UNL     1      24.439  -8.437 -41.717  0.00  0.00    +0.000 C 
ATOM      6  C6  UNL     1      25.953  -8.628 -41.848  0.00  0.00    +0.000 C 
ATOM      7  N1  UNL     1      26.541  -7.651 -42.798  0.00  0.00    +0.000 NA
BRANCH   3   8
ATOM      8  O2  UNL     1      23.856  -8.017 -45.385  0.00  0.00    +0.000 OA
ATOM      9  H6  UNL     1      24.524  -7.717 -46.055  0.00  0.00    +0.000 HD
ENDBRANCH   3   8
BRANCH   4  10
ATOM     10  O3  UNL     1      22.389  -8.543 -42.998  0.00  0.00    +0.000 OA
ATOM     11  H8  UNL     1      22.183  -7.576 -42.895  0.00  0.00    +0.000 HD
ENDBRANCH   4  10
BRANCH   5  12
ATOM     12  O4  UNL     1      23.902  -9.302 -40.746  0.00  0.00    +0.000 OA
ATOM     13  H10 UNL     1      23.643  -8.754 -39.960  0.00  0.00    +0.000 HD
ENDBRANCH   5  12
BRANCH   2  14
ATOM     14  C1  UNL     1      26.433  -6.681 -45.133  0.00  0.00    +0.000 C 
BRANCH  14  15
ATOM     15  O1  UNL     1      26.452  -7.147 -46.459  0.00  0.00    +0.000 OA
ATOM     16  H1  UNL     1      25.755  -7.850 -46.527  0.00  0.00    +0.000 HD
ENDBRANCH  14  15
ENDBRANCH   2  14
ENDBRANCH   1   7
BRANCH   1  17
ATOM     17  C8  UNL     1      28.707  -6.948 -41.777  0.00  0.00    +0.000 C 
BRANCH  17  18
ATOM     18  C9  UNL     1      29.828  -7.710 -41.051  0.00  0.00    +0.000 C 
BRANCH  18  19
ATOM     19  C10 UNL     1      29.297  -8.735 -40.036  0.00  0.00    +0.000 C 
BRANCH  19  20
ATOM     20  C11 UNL     1      29.542 -10.200 -40.442  0.00  0.00    +0.000 C 
BRANCH  20  21
ATOM     21  O5  UNL     1      30.691 -10.339 -41.257  0.00  0.00    +0.000 OA
BRANCH  21  22
ATOM     22  C12 UNL     1      30.414 -11.050 -42.454  0.00  0.00    +0.000 C 
BRANCH  22  23
ATOM     23  C13 UNL     1      31.721 -11.376 -43.214  0.00  0.00    +0.000 C 
ATOM     24  C14 UNL     1      31.777 -10.611 -44.567  0.00  0.00    +0.000 C 
ATOM     25  C15 UNL     1      33.081 -10.958 -45.320  0.00  0.00    +0.000 C 
ATOM     26  C16 UNL     1      34.297 -10.559 -44.455  0.00  0.00    +0.000 C 
ATOM     27  C17 UNL     1      34.260 -11.332 -43.119  0.00  0.00    +0.000 C 
ATOM     28  C18 UNL     1      34.300 -12.850 -43.399  0.00  0.00    +0.000 C 
ATOM     29  C19 UNL     1      33.083 -13.249 -44.262  0.00  0.00    +0.000 C 
ATOM     30  C20 UNL     1      33.123 -12.476 -45.599  0.00  0.00    +0.000 C 
ATOM     31  C21 UNL     1      31.782 -12.903 -43.507  0.00  0.00    +0.000 C 
ATOM     32  C22 UNL     1      32.960 -10.983 -42.361  0.00  0.00    +0.000 C 
ENDBRANCH  22  23
ENDBRANCH  21  22
ENDBRANCH  20  21
ENDBRANCH  19  20
ENDBRANCH  18  19
ENDBRANCH  17  18
ENDBRANCH   1  17
TORSDOF 13
ENDMDL
MODEL 7
REMARK VINA RESULT:    -5.334      4.386      7.565
REMARK INTER + INTRA:          -9.773
REMARK INTER:                  -8.331
REMARK INTRA:                  -1.442
REMARK UNBOUND:                -1.009
REMARK  Name = resultss/4CJN/ligands/lig_137_t0.pdb
REMARK  13 active torsions:
REMARK  status: ('A' for Active; 'I' for Inactive)
REMARK    1  A    between atoms: O1_1  and  C1_2
REMARK    2  A    between atoms: C1_2  and  C2_3
REMARK    3  A    between atoms: C3_4  and  O2_5
REMARK    4  A    between atoms: C4_6  and  O3_7
REMARK    5  A    between atoms: C5_8  and  O4_9
REMARK    6  A    between atoms: N1_11  and  C7_12
REMARK    7  A    between atoms: C7_12  and  C8_13
REMARK    8  A    between atoms: C8_13  and  C9_14
REMARK    9  A    between atoms: C9_14  and  C10_15
REMARK   10  A    between atoms: C10_15  and  C11_16
REMARK   11  A    between atoms: C11_16  and  O5_17
REMARK   12  A    between atoms: O5_17  and  C12_18
REMARK   13  A    between atoms: C12_18  and  C13_19
REMARK                            x       y       z     vdW  Elec       q    Type
REMARK                         _______ _______ _______ _____ _____    ______ ____
ROOT
ATOM      1  C7  UNL     1      27.185  -7.398 -42.253  0.00  0.00    +0.000 C 
ENDROOT
BRANCH   1   7
ATOM      2  C2  UNL     1      24.789  -7.444 -41.617  0.00  0.00    +0.000 C 
ATOM      3  C3  UNL     1      23.351  -7.855 -42.062  0.00  0.00    +0.000 C 
ATOM      4  C4  UNL     1      23.050  -7.413 -43.503  0.00  0.00    +0.000 C 
ATOM      5  C5  UNL     1      24.140  -7.942 -44.441  0.00  0.00    +0.000 C 
ATOM      6  C6  UNL     1      25.499  -7.412 -43.973  0.00  0.00    +0.000 C 
ATOM      7  N1  UNL     1      25.824  -7.888 -42.606  0.00  0.00    +0.000 NA
BRANCH   3   8
ATOM      8  O2  UNL     1      22.408  -7.271 -41.197  0.00  0.00    +0.000 OA
ATOM      9  H6  UNL     1      22.086  -6.442 -41.638  0.00  0.00    +0.000 HD
ENDBRANCH   3   8
BRANCH   4  10
ATOM     10  O3  UNL     1      21.779  -7.854 -43.916  0.00  0.00    +0.000 OA
ATOM     11  H8  UNL     1      21.432  -7.202 -44.581  0.00  0.00    +0.000 HD
ENDBRANCH   4  10
BRANCH   5  12
ATOM     12  O4  UNL     1      23.880  -7.565 -45.772  0.00  0.00    +0.000 OA
ATOM     13  H10 UNL     1      24.692  -7.117 -46.125  0.00  0.00    +0.000 HD
ENDBRANCH   5  12
BRANCH   2  14
ATOM     14  C1  UNL     1      25.034  -8.056 -40.208  0.00  0.00    +0.000 C 
BRANCH  14  15
ATOM     15  O1  UNL     1      24.262  -9.216 -40.025  0.00  0.00    +0.000 OA
ATOM     16  H1  UNL     1      23.365  -9.026 -40.404  0.00  0.00    +0.000 HD
ENDBRANCH  14  15
ENDBRANCH   2  14
ENDBRANCH   1   7
BRANCH   1  17
ATOM     17  C8  UNL     1      28.256  -8.450 -42.581  0.00  0.00    +0.000 C 
BRANCH  17  18
ATOM     18  C9  UNL     1      27.797  -9.852 -42.148  0.00  0.00    +0.000 C 
BRANCH  18  19
ATOM     19  C10 UNL     1      28.471 -10.331 -40.853  0.00  0.00    +0.000 C 
BRANCH  19  20
ATOM     20  C11 UNL     1      27.554 -11.173 -39.947  0.00  0.00    +0.000 C 
BRANCH  20  21
ATOM     21  O5  UNL     1      27.754 -10.884 -38.575  0.00  0.00    +0.000 OA
BRANCH  21  22
ATOM     22  C12 UNL     1      27.956  -9.499 -38.344  0.00  0.00    +0.000 C 
BRANCH  22  23
ATOM     23  C13 UNL     1      27.525  -9.112 -36.910  0.00  0.00    +0.000 C 
ATOM     24  C14 UNL     1      27.958  -7.655 -36.579  0.00  0.00    +0.000 C 
ATOM     25  C15 UNL     1      27.533  -7.290 -35.139  0.00  0.00    +0.000 C 
ATOM     26  C16 UNL     1      25.999  -7.411 -35.008  0.00  0.00    +0.000 C 
ATOM     27  C17 UNL     1      25.565  -8.861 -35.314  0.00  0.00    +0.000 C 
ATOM     28  C18 UNL     1      26.246  -9.825 -34.319  0.00  0.00    +0.000 C 
ATOM     29  C19 UNL     1      27.781  -9.705 -34.452  0.00  0.00    +0.000 C 
ATOM     30  C20 UNL     1      28.213  -8.254 -34.143  0.00  0.00    +0.000 C 
ATOM     31  C21 UNL     1      28.203 -10.073 -35.890  0.00  0.00    +0.000 C 
ATOM     32  C22 UNL     1      25.983  -9.228 -36.755  0.00  0.00    +0.000 C 
ENDBRANCH  22  23
ENDBRANCH  21  22
ENDBRANCH  20  21
ENDBRANCH  19  20
ENDBRANCH  18  19
ENDBRANCH  17  18
ENDBRANCH   1  17
TORSDOF 13
ENDMDL
MODEL 8
REMARK VINA RESULT:    -5.152      6.069      8.692
REMARK INTER + INTRA:          -9.473
REMARK INTER:                  -7.793
REMARK INTRA:                  -1.680
REMARK UNBOUND:                -1.009
REMARK  Name = resultss/4CJN/ligands/lig_137_t0.pdb
REMARK  13 active torsions:
REMARK  status: ('A' for Active; 'I' for Inactive)
REMARK    1  A    between atoms: O1_1  and  C1_2
REMARK    2  A    between atoms: C1_2  and  C2_3
REMARK    3  A    between atoms: C3_4  and  O2_5
REMARK    4  A    between atoms: C4_6  and  O3_7
REMARK    5  A    between atoms: C5_8  and  O4_9
REMARK    6  A    between atoms: N1_11  and  C7_12
REMARK    7  A    between atoms: C7_12  and  C8_13
REMARK    8  A    between atoms: C8_13  and  C9_14
REMARK    9  A    between atoms: C9_14  and  C10_15
REMARK   10  A    between atoms: C10_15  and  C11_16
REMARK   11  A    between atoms: C11_16  and  O5_17
REMARK   12  A    between atoms: O5_17  and  C12_18
REMARK   13  A    between atoms: C12_18  and  C13_19
REMARK                            x       y       z     vdW  Elec       q    Type
REMARK                         _______ _______ _______ _____ _____    ______ ____
ROOT
ATOM      1  C7  UNL     1      26.522  -9.967 -34.725  0.00  0.00    +0.000 C 
ENDROOT
BRANCH   1   7
ATOM      2  C2  UNL     1      24.931  -8.524 -35.964  0.00  0.00    +0.000 C 
ATOM      3  C3  UNL     1      23.988  -7.283 -35.876  0.00  0.00    +0.000 C 
ATOM      4  C4  UNL     1      23.109  -7.321 -34.616  0.00  0.00    +0.000 C 
ATOM      5  C5  UNL     1      23.994  -7.488 -33.377  0.00  0.00    +0.000 C 
ATOM      6  C6  UNL     1      24.811  -8.775 -33.518  0.00  0.00    +0.000 C 
ATOM      7  N1  UNL     1      25.709  -8.719 -34.698  0.00  0.00    +0.000 NA
BRANCH   3   8
ATOM      8  O2  UNL     1      23.160  -7.243 -37.012  0.00  0.00    +0.000 OA
ATOM      9  H6  UNL     1      23.372  -6.403 -37.496  0.00  0.00    +0.000 HD
ENDBRANCH   3   8
BRANCH   4  10
ATOM     10  O3  UNL     1      22.318  -6.162 -34.512  0.00  0.00    +0.000 OA
ATOM     11  H8  UNL     1      22.650  -5.506 -35.181  0.00  0.00    +0.000 HD
ENDBRANCH   4  10
BRANCH   5  12
ATOM     12  O4  UNL     1      23.215  -7.509 -32.205  0.00  0.00    +0.000 OA
ATOM     13  H10 UNL     1      23.824  -7.663 -31.437  0.00  0.00    +0.000 HD
ENDBRANCH   5  12
BRANCH   2  14
ATOM     14  C1  UNL     1      25.864  -8.315 -37.191  0.00  0.00    +0.000 C 
BRANCH  14  15
ATOM     15  O1  UNL     1      25.240  -8.750 -38.374  0.00  0.00    +0.000 OA
ATOM     16  H1  UNL     1      25.201  -7.968 -38.983  0.00  0.00    +0.000 HD
ENDBRANCH  14  15
ENDBRANCH   2  14
ENDBRANCH   1   7
BRANCH   1  17
ATOM     17  C8  UNL     1      27.973  -9.693 -34.298  0.00  0.00    +0.000 C 
BRANCH  17  18
ATOM     18  C9  UNL     1      28.918  -9.736 -35.510  0.00  0.00    +0.000 C 
BRANCH  18  19
ATOM     19  C10 UNL     1      29.371  -8.341 -35.969  0.00  0.00    +0.000 C 
BRANCH  19  20
ATOM     20  C11 UNL     1      30.792  -8.309 -36.558  0.00  0.00    +0.000 C 
BRANCH  20  21
ATOM     21  O5  UNL     1      30.781  -8.364 -37.973  0.00  0.00    +0.000 OA
BRANCH  21  22
ATOM     22  C12 UNL     1      29.599  -7.800 -38.521  0.00  0.00    +0.000 C 
BRANCH  22  23
ATOM     23  C13 UNL     1      29.103  -8.630 -39.728  0.00  0.00    +0.000 C 
ATOM     24  C14 UNL     1      28.553 -10.008 -39.260  0.00  0.00    +0.000 C 
ATOM     25  C15 UNL     1      28.075 -10.830 -40.478  0.00  0.00    +0.000 C 
ATOM     26  C16 UNL     1      26.958 -10.057 -41.214  0.00  0.00    +0.000 C 
ATOM     27  C17 UNL     1      27.503  -8.696 -41.701  0.00  0.00    +0.000 C 
ATOM     28  C18 UNL     1      28.690  -8.929 -42.660  0.00  0.00    +0.000 C 
ATOM     29  C19 UNL     1      29.808  -9.700 -41.923  0.00  0.00    +0.000 C 
ATOM     30  C20 UNL     1      29.261 -11.061 -41.439  0.00  0.00    +0.000 C 
ATOM     31  C21 UNL     1      30.286  -8.876 -40.708  0.00  0.00    +0.000 C 
ATOM     32  C22 UNL     1      27.978  -7.870 -40.485  0.00  0.00    +0.000 C 
ENDBRANCH  22  23
ENDBRANCH  21  22
ENDBRANCH  20  21
ENDBRANCH  19  20
ENDBRANCH  18  19
ENDBRANCH  17  18
ENDBRANCH   1  17
TORSDOF 13
ENDMDL
MODEL 9
REMARK VINA RESULT:    -5.103      6.268      9.968
REMARK INTER + INTRA:          -9.394
REMARK INTER:                  -7.694
REMARK INTRA:                  -1.699
REMARK UNBOUND:                -1.009
REMARK  Name = resultss/4CJN/ligands/lig_137_t0.pdb
REMARK  13 active torsions:
REMARK  status: ('A' for Active; 'I' for Inactive)
REMARK    1  A    between atoms: O1_1  and  C1_2
REMARK    2  A    between atoms: C1_2  and  C2_3
REMARK    3  A    between atoms: C3_4  and  O2_5
REMARK    4  A    between atoms: C4_6  and  O3_7
REMARK    5  A    between atoms: C5_8  and  O4_9
REMARK    6  A    between atoms: N1_11  and  C7_12
REMARK    7  A    between atoms: C7_12  and  C8_13
REMARK    8  A    between atoms: C8_13  and  C9_14
REMARK    9  A    between atoms: C9_14  and  C10_15
REMARK   10  A    between atoms: C10_15  and  C11_16
REMARK   11  A    between atoms: C11_16  and  O5_17
REMARK   12  A    between atoms: O5_17  and  C12_18
REMARK   13  A    between atoms: C12_18  and  C13_19
REMARK                            x       y       z     vdW  Elec       q    Type
REMARK                         _______ _______ _______ _____ _____    ______ ____
ROOT
ATOM      1  C7  UNL     1      29.340  -9.630 -35.584  0.00  0.00    +0.000 C 
ENDROOT
BRANCH   1   7
ATOM      2  C2  UNL     1      27.395  -9.057 -34.156  0.00  0.00    +0.000 C 
ATOM      3  C3  UNL     1      26.767  -7.984 -33.214  0.00  0.00    +0.000 C 
ATOM      4  C4  UNL     1      27.785  -7.456 -32.191  0.00  0.00    +0.000 C 
ATOM      5  C5  UNL     1      29.035  -6.952 -32.922  0.00  0.00    +0.000 C 
ATOM      6  C6  UNL     1      29.625  -8.100 -33.745  0.00  0.00    +0.000 C 
ATOM      7  N1  UNL     1      28.670  -8.572 -34.778  0.00  0.00    +0.000 NA
BRANCH   3   8
ATOM      8  O2  UNL     1      25.676  -8.544 -32.527  0.00  0.00    +0.000 OA
ATOM      9  H6  UNL     1      25.045  -7.802 -32.331  0.00  0.00    +0.000 HD
ENDBRANCH   3   8
BRANCH   4  10
ATOM     10  O3  UNL     1      27.227  -6.436 -31.397  0.00  0.00    +0.000 OA
ATOM     11  H8  UNL     1      26.760  -6.867 -30.633  0.00  0.00    +0.000 HD
ENDBRANCH   4  10
BRANCH   5  12
ATOM     12  O4  UNL     1      29.978  -6.447 -32.008  0.00  0.00    +0.000 OA
ATOM     13  H10 UNL     1      29.610  -5.610 -31.622  0.00  0.00    +0.000 HD
ENDBRANCH   5  12
BRANCH   2  14
ATOM     14  C1  UNL     1      26.328  -9.418 -35.230  0.00  0.00    +0.000 C 
BRANCH  14  15
ATOM     15  O1  UNL     1      25.514 -10.477 -34.791  0.00  0.00    +0.000 OA
ATOM     16  H1  UNL     1      25.616 -10.527 -33.805  0.00  0.00    +0.000 HD
ENDBRANCH  14  15
ENDBRANCH   2  14
ENDBRANCH   1   7
BRANCH   1  17
ATOM     17  C8  UNL     1      29.506  -9.191 -37.048  0.00  0.00    +0.000 C 
BRANCH  17  18
ATOM     18  C9  UNL     1      30.633  -9.982 -37.732  0.00  0.00    +0.000 C 
BRANCH  18  19
ATOM     19  C10 UNL     1      31.647  -9.081 -38.454  0.00  0.00    +0.000 C 
BRANCH  19  20
ATOM     20  C11 UNL     1      31.990  -9.545 -39.881  0.00  0.00    +0.000 C 
BRANCH  20  21
ATOM     21  O5  UNL     1      31.091  -9.019 -40.841  0.00  0.00    +0.000 OA
BRANCH  21  22
ATOM     22  C12 UNL     1      30.225 -10.014 -41.363  0.00  0.00    +0.000 C 
BRANCH  22  23
ATOM     23  C13 UNL     1      28.747  -9.574 -41.244  0.00  0.00    +0.000 C 
ATOM     24  C14 UNL     1      28.072  -9.528 -42.644  0.00  0.00    +0.000 C 
ATOM     25  C15 UNL     1      26.601  -9.073 -42.509  0.00  0.00    +0.000 C 
ATOM     26  C16 UNL     1      25.836 -10.064 -41.604  0.00  0.00    +0.000 C 
ATOM     27  C17 UNL     1      26.489 -10.098 -40.205  0.00  0.00    +0.000 C 
ATOM     28  C18 UNL     1      26.445  -8.687 -39.579  0.00  0.00    +0.000 C 
ATOM     29  C19 UNL     1      27.212  -7.697 -40.484  0.00  0.00    +0.000 C 
ATOM     30  C20 UNL     1      26.556  -7.662 -41.882  0.00  0.00    +0.000 C 
ATOM     31  C21 UNL     1      28.681  -8.152 -40.616  0.00  0.00    +0.000 C 
ATOM     32  C22 UNL     1      27.958 -10.558 -40.335  0.00  0.00    +0.000 C 
ENDBRANCH  22  23
ENDBRANCH  21  22
ENDBRANCH  20  21
ENDBRANCH  19  20
ENDBRANCH  18  19
ENDBRANCH  17  18
ENDBRANCH   1  17
TORSDOF 13
ENDMDL
