MODEL 1
REMARK VINA RESULT:    -4.188      0.000      0.000
REMARK INTER + INTRA:          -6.651
REMARK INTER:                  -6.024
REMARK INTRA:                  -0.627
REMARK UNBOUND:                -0.627
REMARK  Name = resultss/4CJN/ligands/lig_10_t0.pdb
REMARK  11 active torsions:
REMARK  status: ('A' for Active; 'I' for Inactive)
REMARK    1  A    between atoms: C1_1  and  C2_2
REMARK    2  A    between atoms: C2_2  and  C3_3
REMARK    3  A    between atoms: C3_3  and  C4_4
REMARK    4  A    between atoms: C4_4  and  N1_5
REMARK    5  A    between atoms: C5_6  and  C6_7
REMARK    6  A    between atoms: C6_7  and  O1_8
REMARK    7  A    between atoms: C7_9  and  O2_10
REMARK    8  A    between atoms: C8_11  and  O3_12
REMARK    9  A    between atoms: C9_13  and  O4_14
REMARK   10  A    between atoms: C10_15  and  C11_16
REMARK   11  A    between atoms: C11_16  and  O5_17
REMARK                            x       y       z     vdW  Elec       q    Type
REMARK                         _______ _______ _______ _____ _____    ______ ____
ROOT
ATOM      1  N1  UNL     1      27.710  -8.350 -33.971  0.00  0.00    +0.000 NA
ATOM      2  C5  UNL     1      27.176  -7.069 -33.419  0.00  0.00    +0.000 C 
ATOM      3  C7  UNL     1      25.606  -7.083 -33.357  0.00  0.00    +0.000 C 
ATOM      4  C8  UNL     1      25.085  -8.529 -33.274  0.00  0.00    +0.000 C 
ATOM      5  C9  UNL     1      25.477  -9.334 -34.534  0.00  0.00    +0.000 C 
ATOM      6  C10 UNL     1      26.897  -8.956 -35.058  0.00  0.00    +0.000 C 
ENDROOT
BRANCH   3   7
ATOM      7  O2  UNL     1      25.106  -6.348 -32.267  0.00  0.00    +0.000 OA
ATOM      8  H15 UNL     1      25.891  -6.013 -31.761  0.00  0.00    +0.000 HD
ENDBRANCH   3   7
BRANCH   4   9
ATOM      9  O3  UNL     1      23.692  -8.557 -33.081  0.00  0.00    +0.000 OA
ATOM     10  H17 UNL     1      23.511  -8.299 -32.139  0.00  0.00    +0.000 HD
ENDBRANCH   4   9
BRANCH   5  11
ATOM     11  O4  UNL     1      25.427 -10.702 -34.219  0.00  0.00    +0.000 OA
ATOM     12  H19 UNL     1      24.678 -11.092 -34.743  0.00  0.00    +0.000 HD
ENDBRANCH   5  11
BRANCH   1  13
ATOM     13  C4  UNL     1      29.164  -8.340 -34.273  0.00  0.00    +0.000 C 
BRANCH  13  14
ATOM     14  C3  UNL     1      29.781  -9.674 -33.842  0.00  0.00    +0.000 C 
BRANCH  14  16
ATOM     15  C1  UNL     1      31.687 -10.514 -32.414  0.00  0.00    +0.000 C 
ATOM     16  C2  UNL     1      30.515  -9.540 -32.502  0.00  0.00    +0.000 C 
ENDBRANCH  14  16
ENDBRANCH  13  14
ENDBRANCH   1  13
BRANCH   2  17
ATOM     17  C6  UNL     1      27.790  -6.811 -32.014  0.00  0.00    +0.000 C 
BRANCH  17  18
ATOM     18  O1  UNL     1      27.528  -7.882 -31.145  0.00  0.00    +0.000 OA
ATOM     19  H13 UNL     1      26.702  -7.648 -30.646  0.00  0.00    +0.000 HD
ENDBRANCH  17  18
ENDBRANCH   2  17
BRANCH   6  20
ATOM     20  C11 UNL     1      26.824  -8.067 -36.331  0.00  0.00    +0.000 C 
BRANCH  20  21
ATOM     21  O5  UNL     1      25.635  -8.340 -37.024  0.00  0.00    +0.000 OA
ATOM     22  H23 UNL     1      25.223  -7.461 -37.229  0.00  0.00    +0.000 HD
ENDBRANCH  20  21
ENDBRANCH   6  20
TORSDOF 10
ENDMDL
MODEL 2
REMARK VINA RESULT:    -4.168      2.384      5.493
REMARK INTER + INTRA:          -6.622
REMARK INTER:                  -5.936
REMARK INTRA:                  -0.686
REMARK UNBOUND:                -0.627
REMARK  Name = resultss/4CJN/ligands/lig_10_t0.pdb
REMARK  11 active torsions:
REMARK  status: ('A' for Active; 'I' for Inactive)
REMARK    1  A    between atoms: C1_1  and  C2_2
REMARK    2  A    between atoms: C2_2  and  C3_3
REMARK    3  A    between atoms: C3_3  and  C4_4
REMARK    4  A    between atoms: C4_4  and  N1_5
REMARK    5  A    between atoms: C5_6  and  C6_7
REMARK    6  A    between atoms: C6_7  and  O1_8
REMARK    7  A    between atoms: C7_9  and  O2_10
REMARK    8  A    between atoms: C8_11  and  O3_12
REMARK    9  A    between atoms: C9_13  and  O4_14
REMARK   10  A    between atoms: C10_15  and  C11_16
REMARK   11  A    between atoms: C11_16  and  O5_17
REMARK                            x       y       z     vdW  Elec       q    Type
REMARK                         _______ _______ _______ _____ _____    ______ ____
ROOT
ATOM      1  N1  UNL     1      25.237  -7.542 -34.817  0.00  0.00    +0.000 NA
ATOM      2  C5  UNL     1      25.986  -7.016 -35.998  0.00  0.00    +0.000 C 
ATOM      3  C7  UNL     1      27.003  -8.078 -36.550  0.00  0.00    +0.000 C 
ATOM      4  C8  UNL     1      26.550  -9.501 -36.177  0.00  0.00    +0.000 C 
ATOM      5  C9  UNL     1      26.516  -9.688 -34.643  0.00  0.00    +0.000 C 
ATOM      6  C10 UNL     1      26.030  -8.404 -33.902  0.00  0.00    +0.000 C 
ENDROOT
BRANCH   3   7
ATOM      7  O2  UNL     1      27.162  -7.995 -37.945  0.00  0.00    +0.000 OA
ATOM      8  H15 UNL     1      27.446  -8.895 -38.256  0.00  0.00    +0.000 HD
ENDBRANCH   3   7
BRANCH   4   9
ATOM      9  O3  UNL     1      27.374 -10.471 -36.776  0.00  0.00    +0.000 OA
ATOM     10  H17 UNL     1      27.788 -11.008 -36.051  0.00  0.00    +0.000 HD
ENDBRANCH   4   9
BRANCH   5  11
ATOM     11  O4  UNL     1      25.666 -10.767 -34.346  0.00  0.00    +0.000 OA
ATOM     12  H19 UNL     1      24.900 -10.713 -34.977  0.00  0.00    +0.000 HD
ENDBRANCH   5  11
BRANCH   1  13
ATOM     13  C4  UNL     1      24.420  -6.533 -34.098  0.00  0.00    +0.000 C 
BRANCH  13  14
ATOM     14  C3  UNL     1      23.176  -7.209 -33.514  0.00  0.00    +0.000 C 
BRANCH  14  16
ATOM     15  C1  UNL     1      21.603  -6.890 -35.463  0.00  0.00    +0.000 C 
ATOM     16  C2  UNL     1      22.356  -7.905 -34.607  0.00  0.00    +0.000 C 
ENDBRANCH  14  16
ENDBRANCH  13  14
ENDBRANCH   1  13
BRANCH   2  17
ATOM     17  C6  UNL     1      24.979  -6.581 -37.100  0.00  0.00    +0.000 C 
BRANCH  17  18
ATOM     18  O1  UNL     1      24.265  -7.683 -37.597  0.00  0.00    +0.000 OA
ATOM     19  H13 UNL     1      24.923  -8.261 -38.065  0.00  0.00    +0.000 HD
ENDBRANCH  17  18
ENDBRANCH   2  17
BRANCH   6  20
ATOM     20  C11 UNL     1      27.207  -7.649 -33.223  0.00  0.00    +0.000 C 
BRANCH  20  21
ATOM     21  O5  UNL     1      27.117  -7.799 -31.831  0.00  0.00    +0.000 OA
ATOM     22  H23 UNL     1      26.975  -6.890 -31.461  0.00  0.00    +0.000 HD
ENDBRANCH  20  21
ENDBRANCH   6  20
TORSDOF 10
ENDMDL
MODEL 3
REMARK VINA RESULT:    -4.154      6.088      8.207
REMARK INTER + INTRA:          -6.602
REMARK INTER:                  -6.002
REMARK INTRA:                  -0.599
REMARK UNBOUND:                -0.627
REMARK  Name = resultss/4CJN/ligands/lig_10_t0.pdb
REMARK  11 active torsions:
REMARK  status: ('A' for Active; 'I' for Inactive)
REMARK    1  A    between atoms: C1_1  and  C2_2
REMARK    2  A    between atoms: C2_2  and  C3_3
REMARK    3  A    between atoms: C3_3  and  C4_4
REMARK    4  A    between atoms: C4_4  and  N1_5
REMARK    5  A    between atoms: C5_6  and  C6_7
REMARK    6  A    between atoms: C6_7  and  O1_8
REMARK    7  A    between atoms: C7_9  and  O2_10
REMARK    8  A    between atoms: C8_11  and  O3_12
REMARK    9  A    between atoms: C9_13  and  O4_14
REMARK   10  A    between atoms: C10_15  and  C11_16
REMARK   11  A    between atoms: C11_16  and  O5_17
REMARK                            x       y       z     vdW  Elec       q    Type
REMARK                         _______ _______ _______ _____ _____    ______ ____
ROOT
ATOM      1  N1  UNL     1      27.226  -9.358 -41.591  0.00  0.00    +0.000 NA
ATOM      2  C5  UNL     1      25.797  -9.605 -41.950  0.00  0.00    +0.000 C 
ATOM      3  C7  UNL     1      24.866  -9.506 -40.689  0.00  0.00    +0.000 C 
ATOM      4  C8  UNL     1      25.511  -8.616 -39.612  0.00  0.00    +0.000 C 
ATOM      5  C9  UNL     1      26.846  -9.220 -39.120  0.00  0.00    +0.000 C 
ATOM      6  C10 UNL     1      27.647  -9.900 -40.273  0.00  0.00    +0.000 C 
ENDROOT
BRANCH   3   7
ATOM      7  O2  UNL     1      23.590  -9.002 -41.001  0.00  0.00    +0.000 OA
ATOM      8  H15 UNL     1      23.018  -9.152 -40.204  0.00  0.00    +0.000 HD
ENDBRANCH   3   7
BRANCH   4   9
ATOM      9  O3  UNL     1      24.634  -8.405 -38.533  0.00  0.00    +0.000 OA
ATOM     10  H17 UNL     1      23.951  -7.745 -38.821  0.00  0.00    +0.000 HD
ENDBRANCH   4   9
BRANCH   5  11
ATOM     11  O4  UNL     1      27.612  -8.192 -38.542  0.00  0.00    +0.000 OA
ATOM     12  H19 UNL     1      26.984  -7.457 -38.314  0.00  0.00    +0.000 HD
ENDBRANCH   5  11
BRANCH   1  13
ATOM     13  C4  UNL     1      28.199  -9.650 -42.674  0.00  0.00    +0.000 C 
BRANCH  13  14
ATOM     14  C3  UNL     1      29.606  -9.260 -42.212  0.00  0.00    +0.000 C 
BRANCH  14  16
ATOM     15  C1  UNL     1      30.633 -11.548 -42.515  0.00  0.00    +0.000 C 
ATOM     16  C2  UNL     1      30.678 -10.081 -42.939  0.00  0.00    +0.000 C 
ENDBRANCH  14  16
ENDBRANCH  13  14
ENDBRANCH   1  13
BRANCH   2  17
ATOM     17  C6  UNL     1      25.356  -8.600 -43.051  0.00  0.00    +0.000 C 
BRANCH  17  18
ATOM     18  O1  UNL     1      24.246  -9.082 -43.762  0.00  0.00    +0.000 OA
ATOM     19  H13 UNL     1      24.050  -8.416 -44.471  0.00  0.00    +0.000 HD
ENDBRANCH  17  18
ENDBRANCH   2  17
BRANCH   6  20
ATOM     20  C11 UNL     1      27.562 -11.450 -40.197  0.00  0.00    +0.000 C 
BRANCH  20  21
ATOM     21  O5  UNL     1      27.723 -11.862 -38.865  0.00  0.00    +0.000 OA
ATOM     22  H23 UNL     1      26.854 -11.700 -38.416  0.00  0.00    +0.000 HD
ENDBRANCH  20  21
ENDBRANCH   6  20
TORSDOF 10
ENDMDL
MODEL 4
REMARK VINA RESULT:    -4.101      6.255      8.977
REMARK INTER + INTRA:          -6.526
REMARK INTER:                  -5.904
REMARK INTRA:                  -0.622
REMARK UNBOUND:                -0.627
REMARK  Name = resultss/4CJN/ligands/lig_10_t0.pdb
REMARK  11 active torsions:
REMARK  status: ('A' for Active; 'I' for Inactive)
REMARK    1  A    between atoms: C1_1  and  C2_2
REMARK    2  A    between atoms: C2_2  and  C3_3
REMARK    3  A    between atoms: C3_3  and  C4_4
REMARK    4  A    between atoms: C4_4  and  N1_5
REMARK    5  A    between atoms: C5_6  and  C6_7
REMARK    6  A    between atoms: C6_7  and  O1_8
REMARK    7  A    between atoms: C7_9  and  O2_10
REMARK    8  A    between atoms: C8_11  and  O3_12
REMARK    9  A    between atoms: C9_13  and  O4_14
REMARK   10  A    between atoms: C10_15  and  C11_16
REMARK   11  A    between atoms: C11_16  and  O5_17
REMARK                            x       y       z     vdW  Elec       q    Type
REMARK                         _______ _______ _______ _____ _____    ______ ____
ROOT
ATOM      1  N1  UNL     1      27.205  -8.943 -42.003  0.00  0.00    +0.000 NA
ATOM      2  C5  UNL     1      25.919  -9.664 -41.761  0.00  0.00    +0.000 C 
ATOM      3  C7  UNL     1      25.462  -9.531 -40.264  0.00  0.00    +0.000 C 
ATOM      4  C8  UNL     1      26.058  -8.261 -39.630  0.00  0.00    +0.000 C 
ATOM      5  C9  UNL     1      27.603  -8.324 -39.610  0.00  0.00    +0.000 C 
ATOM      6  C10 UNL     1      28.183  -9.007 -40.886  0.00  0.00    +0.000 C 
ENDROOT
BRANCH   3   7
ATOM      7  O2  UNL     1      24.062  -9.500 -40.130  0.00  0.00    +0.000 OA
ATOM      8  H15 UNL     1      23.741 -10.432 -40.251  0.00  0.00    +0.000 HD
ENDBRANCH   3   7
BRANCH   4   9
ATOM      9  O3  UNL     1      25.553  -8.053 -38.334  0.00  0.00    +0.000 OA
ATOM     10  H17 UNL     1      25.490  -8.938 -37.888  0.00  0.00    +0.000 HD
ENDBRANCH   4   9
BRANCH   5  11
ATOM     11  O4  UNL     1      28.098  -7.013 -39.496  0.00  0.00    +0.000 OA
ATOM     12  H19 UNL     1      28.987  -7.078 -39.057  0.00  0.00    +0.000 HD
ENDBRANCH   5  11
BRANCH   1  13
ATOM     13  C4  UNL     1      27.822  -9.200 -43.329  0.00  0.00    +0.000 C 
BRANCH  13  14
ATOM     14  C3  UNL     1      28.307  -7.877 -43.928  0.00  0.00    +0.000 C 
BRANCH  14  16
ATOM     15  C1  UNL     1      27.890  -7.159 -46.314  0.00  0.00    +0.000 C 
ATOM     16  C2  UNL     1      27.285  -7.308 -44.920  0.00  0.00    +0.000 C 
ENDBRANCH  14  16
ENDBRANCH  13  14
ENDBRANCH   1  13
BRANCH   2  17
ATOM     17  C6  UNL     1      24.829  -9.122 -42.728  0.00  0.00    +0.000 C 
BRANCH  17  18
ATOM     18  O1  UNL     1      23.773 -10.038 -42.865  0.00  0.00    +0.000 OA
ATOM     19  H13 UNL     1      23.799 -10.623 -42.063  0.00  0.00    +0.000 HD
ENDBRANCH  17  18
ENDBRANCH   2  17
BRANCH   6  20
ATOM     20  C11 UNL     1      28.677 -10.451 -40.593  0.00  0.00    +0.000 C 
BRANCH  20  21
ATOM     21  O5  UNL     1      28.713 -10.660 -39.205  0.00  0.00    +0.000 OA
ATOM     22  H23 UNL     1      28.963 -11.611 -39.072  0.00  0.00    +0.000 HD
ENDBRANCH  20  21
ENDBRANCH   6  20
TORSDOF 10
ENDMDL
MODEL 5
REMARK VINA RESULT:    -3.713      5.065      7.726
REMARK INTER + INTRA:          -5.968
REMARK INTER:                  -5.349
REMARK INTRA:                  -0.620
REMARK UNBOUND:                -0.627
REMARK  Name = resultss/4CJN/ligands/lig_10_t0.pdb
REMARK  11 active torsions:
REMARK  status: ('A' for Active; 'I' for Inactive)
REMARK    1  A    between atoms: C1_1  and  C2_2
REMARK    2  A    between atoms: C2_2  and  C3_3
REMARK    3  A    between atoms: C3_3  and  C4_4
REMARK    4  A    between atoms: C4_4  and  N1_5
REMARK    5  A    between atoms: C5_6  and  C6_7
REMARK    6  A    between atoms: C6_7  and  O1_8
REMARK    7  A    between atoms: C7_9  and  O2_10
REMARK    8  A    between atoms: C8_11  and  O3_12
REMARK    9  A    between atoms: C9_13  and  O4_14
REMARK   10  A    between atoms: C10_15  and  C11_16
REMARK   11  A    between atoms: C11_16  and  O5_17
REMARK                            x       y       z     vdW  Elec       q    Type
REMARK                         _______ _______ _______ _____ _____    ______ ____
ROOT
ATOM      1  N1  UNL     1      27.370  -8.696 -40.356  0.00  0.00    +0.000 NA
ATOM      2  C5  UNL     1      27.905  -8.555 -41.744  0.00  0.00    +0.000 C 
ATOM      3  C7  UNL     1      26.924  -9.179 -42.801  0.00  0.00    +0.000 C 
ATOM      4  C8  UNL     1      25.485  -9.194 -42.256  0.00  0.00    +0.000 C 
ATOM      5  C9  UNL     1      25.379 -10.076 -40.991  0.00  0.00    +0.000 C 
ATOM      6  C10 UNL     1      26.645  -9.965 -40.086  0.00  0.00    +0.000 C 
ENDROOT
BRANCH   3   7
ATOM      7  O2  UNL     1      26.947  -8.489 -44.027  0.00  0.00    +0.000 OA
ATOM      8  H15 UNL     1      27.670  -7.812 -43.963  0.00  0.00    +0.000 HD
ENDBRANCH   3   7
BRANCH   4   9
ATOM      9  O3  UNL     1      24.573  -9.623 -43.237  0.00  0.00    +0.000 OA
ATOM     10  H17 UNL     1      23.783  -9.022 -43.201  0.00  0.00    +0.000 HD
ENDBRANCH   4   9
BRANCH   5  11
ATOM     11  O4  UNL     1      24.236  -9.686 -40.272  0.00  0.00    +0.000 OA
ATOM     12  H19 UNL     1      24.335 -10.050 -39.353  0.00  0.00    +0.000 HD
ENDBRANCH   5  11
BRANCH   1  13
ATOM     13  C4  UNL     1      28.328  -8.336 -39.280  0.00  0.00    +0.000 C 
BRANCH  13  14
ATOM     14  C3  UNL     1      27.610  -8.375 -37.928  0.00  0.00    +0.000 C 
BRANCH  14  16
ATOM     15  C1  UNL     1      27.603  -9.808 -35.848  0.00  0.00    +0.000 C 
ATOM     16  C2  UNL     1      28.470  -9.065 -36.862  0.00  0.00    +0.000 C 
ENDBRANCH  14  16
ENDBRANCH  13  14
ENDBRANCH   1  13
BRANCH   2  17
ATOM     17  C6  UNL     1      28.174  -7.054 -42.048  0.00  0.00    +0.000 C 
BRANCH  17  18
ATOM     18  O1  UNL     1      27.006  -6.290 -41.893  0.00  0.00    +0.000 OA
ATOM     19  H13 UNL     1      26.905  -6.119 -40.920  0.00  0.00    +0.000 HD
ENDBRANCH  17  18
ENDBRANCH   2  17
BRANCH   6  20
ATOM     20  C11 UNL     1      27.552 -11.221 -40.207  0.00  0.00    +0.000 C 
BRANCH  20  21
ATOM     21  O5  UNL     1      27.693 -11.818 -38.945  0.00  0.00    +0.000 OA
ATOM     22  H23 UNL     1      27.953 -11.093 -38.320  0.00  0.00    +0.000 HD
ENDBRANCH  20  21
ENDBRANCH   6  20
TORSDOF 10
ENDMDL
MODEL 6
REMARK VINA RESULT:    -3.709      5.438      7.351
REMARK INTER + INTRA:          -5.962
REMARK INTER:                  -5.340
REMARK INTRA:                  -0.622
REMARK UNBOUND:                -0.627
REMARK  Name = resultss/4CJN/ligands/lig_10_t0.pdb
REMARK  11 active torsions:
REMARK  status: ('A' for Active; 'I' for Inactive)
REMARK    1  A    between atoms: C1_1  and  C2_2
REMARK    2  A    between atoms: C2_2  and  C3_3
REMARK    3  A    between atoms: C3_3  and  C4_4
REMARK    4  A    between atoms: C4_4  and  N1_5
REMARK    5  A    between atoms: C5_6  and  C6_7
REMARK    6  A    between atoms: C6_7  and  O1_8
REMARK    7  A    between atoms: C7_9  and  O2_10
REMARK    8  A    between atoms: C8_11  and  O3_12
REMARK    9  A    between atoms: C9_13  and  O4_14
REMARK   10  A    between atoms: C10_15  and  C11_16
REMARK   11  A    between atoms: C11_16  and  O5_17
REMARK                            x       y       z     vdW  Elec       q    Type
REMARK                         _______ _______ _______ _____ _____    ______ ____
ROOT
ATOM      1  N1  UNL     1      28.028  -9.742 -40.586  0.00  0.00    +0.000 NA
ATOM      2  C5  UNL     1      27.624  -9.266 -39.229  0.00  0.00    +0.000 C 
ATOM      3  C7  UNL     1      26.145  -8.735 -39.226  0.00  0.00    +0.000 C 
ATOM      4  C8  UNL     1      25.339  -9.384 -40.365  0.00  0.00    +0.000 C 
ATOM      5  C9  UNL     1      25.930  -9.014 -41.744  0.00  0.00    +0.000 C 
ATOM      6  C10 UNL     1      27.489  -8.945 -41.719  0.00  0.00    +0.000 C 
ENDROOT
BRANCH   3   7
ATOM      7  O2  UNL     1      25.492  -8.974 -38.003  0.00  0.00    +0.000 OA
ATOM      8  H15 UNL     1      25.082  -8.114 -37.723  0.00  0.00    +0.000 HD
ENDBRANCH   3   7
BRANCH   4   9
ATOM      9  O3  UNL     1      23.980  -9.025 -40.295  0.00  0.00    +0.000 OA
ATOM     10  H17 UNL     1      23.445  -9.803 -40.603  0.00  0.00    +0.000 HD
ENDBRANCH   4   9
BRANCH   5  11
ATOM     11  O4  UNL     1      25.505  -9.972 -42.681  0.00  0.00    +0.000 OA
ATOM     12  H19 UNL     1      25.656 -10.864 -42.270  0.00  0.00    +0.000 HD
ENDBRANCH   5  11
BRANCH   1  13
ATOM     13  C4  UNL     1      29.473 -10.051 -40.733  0.00  0.00    +0.000 C 
BRANCH  13  14
ATOM     14  C3  UNL     1      29.646 -11.213 -41.715  0.00  0.00    +0.000 C 
BRANCH  14  16
ATOM     15  C1  UNL     1      31.430 -12.211 -43.199  0.00  0.00    +0.000 C 
ATOM     16  C2  UNL     1      30.759 -10.922 -42.729  0.00  0.00    +0.000 C 
ENDBRANCH  14  16
ENDBRANCH  13  14
ENDBRANCH   1  13
BRANCH   2  17
ATOM     17  C6  UNL     1      27.807 -10.416 -38.199  0.00  0.00    +0.000 C 
BRANCH  17  18
ATOM     18  O1  UNL     1      28.006  -9.910 -36.905  0.00  0.00    +0.000 OA
ATOM     19  H13 UNL     1      27.254  -9.287 -36.725  0.00  0.00    +0.000 HD
ENDBRANCH  17  18
ENDBRANCH   2  17
BRANCH   6  20
ATOM     20  C11 UNL     1      28.001  -7.478 -41.729  0.00  0.00    +0.000 C 
BRANCH  20  21
ATOM     21  O5  UNL     1      26.931  -6.611 -42.003  0.00  0.00    +0.000 OA
ATOM     22  H23 UNL     1      27.232  -5.704 -41.737  0.00  0.00    +0.000 HD
ENDBRANCH  20  21
ENDBRANCH   6  20
TORSDOF 10
ENDMDL
MODEL 7
REMARK VINA RESULT:    -3.647      3.748      5.982
REMARK INTER + INTRA:          -5.873
REMARK INTER:                  -5.201
REMARK INTRA:                  -0.672
REMARK UNBOUND:                -0.627
REMARK  Name = resultss/4CJN/ligands/lig_10_t0.pdb
REMARK  11 active torsions:
REMARK  status: ('A' for Active; 'I' for Inactive)
REMARK    1  A    between atoms: C1_1  and  C2_2
REMARK    2  A    between atoms: C2_2  and  C3_3
REMARK    3  A    between atoms: C3_3  and  C4_4
REMARK    4  A    between atoms: C4_4  and  N1_5
REMARK    5  A    between atoms: C5_6  and  C6_7
REMARK    6  A    between atoms: C6_7  and  O1_8
REMARK    7  A    between atoms: C7_9  and  O2_10
REMARK    8  A    between atoms: C8_11  and  O3_12
REMARK    9  A    between atoms: C9_13  and  O4_14
REMARK   10  A    between atoms: C10_15  and  C11_16
REMARK   11  A    between atoms: C11_16  and  O5_17
REMARK                            x       y       z     vdW  Elec       q    Type
REMARK                         _______ _______ _______ _____ _____    ______ ____
ROOT
ATOM      1  N1  UNL     1      27.075  -9.206 -38.232  0.00  0.00    +0.000 NA
ATOM      2  C5  UNL     1      25.922  -8.366 -38.678  0.00  0.00    +0.000 C 
ATOM      3  C7  UNL     1      25.403  -8.812 -40.092  0.00  0.00    +0.000 C 
ATOM      4  C8  UNL     1      25.755 -10.287 -40.354  0.00  0.00    +0.000 C 
ATOM      5  C9  UNL     1      27.286 -10.498 -40.367  0.00  0.00    +0.000 C 
ATOM      6  C10 UNL     1      28.014  -9.610 -39.311  0.00  0.00    +0.000 C 
ENDROOT
BRANCH   3   7
ATOM      7  O2  UNL     1      24.014  -8.636 -40.234  0.00  0.00    +0.000 OA
ATOM      8  H15 UNL     1      23.677  -8.298 -39.363  0.00  0.00    +0.000 HD
ENDBRANCH   3   7
BRANCH   4   9
ATOM      9  O3  UNL     1      25.181 -10.742 -41.555  0.00  0.00    +0.000 OA
ATOM     10  H17 UNL     1      25.335 -11.722 -41.612  0.00  0.00    +0.000 HD
ENDBRANCH   4   9
BRANCH   5  11
ATOM     11  O4  UNL     1      27.549 -11.856 -40.119  0.00  0.00    +0.000 OA
ATOM     12  H19 UNL     1      27.830 -11.927 -39.168  0.00  0.00    +0.000 HD
ENDBRANCH   5  11
BRANCH   1  13
ATOM     13  C4  UNL     1      27.768  -8.716 -37.015  0.00  0.00    +0.000 C 
BRANCH  13  14
ATOM     14  C3  UNL     1      28.216  -9.911 -36.169  0.00  0.00    +0.000 C 
BRANCH  14  16
ATOM     15  C1  UNL     1      26.905  -8.533 -34.507  0.00  0.00    +0.000 C 
ATOM     16  C2  UNL     1      27.572  -9.879 -34.777  0.00  0.00    +0.000 C 
ENDBRANCH  14  16
ENDBRANCH  13  14
ENDBRANCH   1  13
BRANCH   2  17
ATOM     17  C6  UNL     1      24.788  -8.436 -37.618  0.00  0.00    +0.000 C 
BRANCH  17  18
ATOM     18  O1  UNL     1      23.904  -7.353 -37.751  0.00  0.00    +0.000 OA
ATOM     19  H13 UNL     1      24.142  -6.702 -37.041  0.00  0.00    +0.000 HD
ENDBRANCH  17  18
ENDBRANCH   2  17
BRANCH   6  20
ATOM     20  C11 UNL     1      28.736  -8.403 -39.972  0.00  0.00    +0.000 C 
BRANCH  20  21
ATOM     21  O5  UNL     1      28.745  -8.570 -41.366  0.00  0.00    +0.000 OA
ATOM     22  H23 UNL     1      29.319  -7.847 -41.730  0.00  0.00    +0.000 HD
ENDBRANCH  20  21
ENDBRANCH   6  20
TORSDOF 10
ENDMDL
MODEL 8
REMARK VINA RESULT:    -3.624      2.846      4.757
REMARK INTER + INTRA:          -5.839
REMARK INTER:                  -5.589
REMARK INTRA:                  -0.250
REMARK UNBOUND:                -0.627
REMARK  Name = resultss/4CJN/ligands/lig_10_t0.pdb
REMARK  11 active torsions:
REMARK  status: ('A' for Active; 'I' for Inactive)
REMARK    1  A    between atoms: C1_1  and  C2_2
REMARK    2  A    between atoms: C2_2  and  C3_3
REMARK    3  A    between atoms: C3_3  and  C4_4
REMARK    4  A    between atoms: C4_4  and  N1_5
REMARK    5  A    between atoms: C5_6  and  C6_7
REMARK    6  A    between atoms: C6_7  and  O1_8
REMARK    7  A    between atoms: C7_9  and  O2_10
REMARK    8  A    between atoms: C8_11  and  O3_12
REMARK    9  A    between atoms: C9_13  and  O4_14
REMARK   10  A    between atoms: C10_15  and  C11_16
REMARK   11  A    between atoms: C11_16  and  O5_17
REMARK                            x       y       z     vdW  Elec       q    Type
REMARK                         _______ _______ _______ _____ _____    ______ ____
ROOT
ATOM      1  N1  UNL     1      25.552  -7.338 -35.700  0.00  0.00    +0.000 NA
ATOM      2  C5  UNL     1      24.098  -7.530 -35.984  0.00  0.00    +0.000 C 
ATOM      3  C7  UNL     1      23.319  -7.989 -34.699  0.00  0.00    +0.000 C 
ATOM      4  C8  UNL     1      24.063  -7.537 -33.429  0.00  0.00    +0.000 C 
ATOM      5  C9  UNL     1      25.463  -8.187 -33.345  0.00  0.00    +0.000 C 
ATOM      6  C10 UNL     1      26.141  -8.314 -34.745  0.00  0.00    +0.000 C 
ENDROOT
BRANCH   3   7
ATOM      7  O2  UNL     1      22.003  -7.496 -34.663  0.00  0.00    +0.000 OA
ATOM      8  H15 UNL     1      21.971  -6.716 -35.276  0.00  0.00    +0.000 HD
ENDBRANCH   3   7
BRANCH   4   9
ATOM      9  O3  UNL     1      23.315  -7.821 -32.273  0.00  0.00    +0.000 OA
ATOM     10  H17 UNL     1      23.156  -6.964 -31.797  0.00  0.00    +0.000 HD
ENDBRANCH   4   9
BRANCH   5  11
ATOM     11  O4  UNL     1      26.263  -7.408 -32.491  0.00  0.00    +0.000 OA
ATOM     12  H19 UNL     1      25.939  -7.569 -31.566  0.00  0.00    +0.000 HD
ENDBRANCH   5  11
BRANCH   1  13
ATOM     13  C4  UNL     1      26.397  -7.122 -36.901  0.00  0.00    +0.000 C 
BRANCH  13  14
ATOM     14  C3  UNL     1      25.877  -7.989 -38.051  0.00  0.00    +0.000 C 
BRANCH  14  16
ATOM     15  C1  UNL     1      26.513  -9.509 -39.965  0.00  0.00    +0.000 C 
ATOM     16  C2  UNL     1      27.032  -8.632 -38.828  0.00  0.00    +0.000 C 
ENDBRANCH  14  16
ENDBRANCH  13  14
ENDBRANCH   1  13
BRANCH   2  17
ATOM     17  C6  UNL     1      23.502  -6.213 -36.557  0.00  0.00    +0.000 C 
BRANCH  17  18
ATOM     18  O1  UNL     1      22.404  -6.475 -37.391  0.00  0.00    +0.000 OA
ATOM     19  H13 UNL     1      22.771  -6.678 -38.291  0.00  0.00    +0.000 HD
ENDBRANCH  17  18
ENDBRANCH   2  17
BRANCH   6  20
ATOM     20  C11 UNL     1      26.108  -9.776 -35.271  0.00  0.00    +0.000 C 
BRANCH  20  21
ATOM     21  O5  UNL     1      25.572 -10.616 -34.283  0.00  0.00    +0.000 OA
ATOM     22  H23 UNL     1      24.775 -10.148 -33.922  0.00  0.00    +0.000 HD
ENDBRANCH  20  21
ENDBRANCH   6  20
TORSDOF 10
ENDMDL
MODEL 9
REMARK VINA RESULT:    -3.563      2.343      4.329
REMARK INTER + INTRA:          -5.753
REMARK INTER:                  -5.093
REMARK INTRA:                  -0.660
REMARK UNBOUND:                -0.627
REMARK  Name = resultss/4CJN/ligands/lig_10_t0.pdb
REMARK  11 active torsions:
REMARK  status: ('A' for Active; 'I' for Inactive)
REMARK    1  A    between atoms: C1_1  and  C2_2
REMARK    2  A    between atoms: C2_2  and  C3_3
REMARK    3  A    between atoms: C3_3  and  C4_4
REMARK    4  A    between atoms: C4_4  and  N1_5
REMARK    5  A    between atoms: C5_6  and  C6_7
REMARK    6  A    between atoms: C6_7  and  O1_8
REMARK    7  A    between atoms: C7_9  and  O2_10
REMARK    8  A    between atoms: C8_11  and  O3_12
REMARK    9  A    between atoms: C9_13  and  O4_14
REMARK   10  A    between atoms: C10_15  and  C11_16
REMARK   11  A    between atoms: C11_16  and  O5_17
REMARK                            x       y       z     vdW  Elec       q    Type
REMARK                         _______ _______ _______ _____ _____    ______ ____
ROOT
ATOM      1  N1  UNL     1      25.956  -8.336 -35.624  0.00  0.00    +0.000 NA
ATOM      2  C5  UNL     1      24.819  -8.564 -34.682  0.00  0.00    +0.000 C 
ATOM      3  C7  UNL     1      25.172  -8.079 -33.230  0.00  0.00    +0.000 C 
ATOM      4  C8  UNL     1      26.260  -6.991 -33.276  0.00  0.00    +0.000 C 
ATOM      5  C9  UNL     1      27.571  -7.542 -33.882  0.00  0.00    +0.000 C 
ATOM      6  C10 UNL     1      27.307  -8.551 -35.042  0.00  0.00    +0.000 C 
ENDROOT
BRANCH   3   7
ATOM      7  O2  UNL     1      24.051  -7.582 -32.542  0.00  0.00    +0.000 OA
ATOM      8  H15 UNL     1      23.297  -8.198 -32.736  0.00  0.00    +0.000 HD
ENDBRANCH   3   7
BRANCH   4   9
ATOM      9  O3  UNL     1      26.493  -6.449 -31.999  0.00  0.00    +0.000 OA
ATOM     10  H17 UNL     1      27.183  -5.741 -32.092  0.00  0.00    +0.000 HD
ENDBRANCH   4   9
BRANCH   5  11
ATOM     11  O4  UNL     1      28.335  -6.459 -34.349  0.00  0.00    +0.000 OA
ATOM     12  H19 UNL     1      28.889  -6.147 -33.586  0.00  0.00    +0.000 HD
ENDBRANCH   5  11
BRANCH   1  13
ATOM     13  C4  UNL     1      25.794  -8.964 -36.959  0.00  0.00    +0.000 C 
BRANCH  13  14
ATOM     14  C3  UNL     1      26.760  -8.307 -37.950  0.00  0.00    +0.000 C 
BRANCH  14  16
ATOM     15  C1  UNL     1      27.959 -10.502 -38.301  0.00  0.00    +0.000 C 
ATOM     16  C2  UNL     1      27.272  -9.320 -38.981  0.00  0.00    +0.000 C 
ENDBRANCH  14  16
ENDBRANCH  13  14
ENDBRANCH   1  13
BRANCH   2  17
ATOM     17  C6  UNL     1      23.549  -7.845 -35.218  0.00  0.00    +0.000 C 
BRANCH  17  18
ATOM     18  O1  UNL     1      22.381  -8.492 -34.785  0.00  0.00    +0.000 OA
ATOM     19  H13 UNL     1      21.636  -7.845 -34.902  0.00  0.00    +0.000 HD
ENDBRANCH  17  18
ENDBRANCH   2  17
BRANCH   6  20
ATOM     20  C11 UNL     1      27.551 -10.020 -34.597  0.00  0.00    +0.000 C 
BRANCH  20  21
ATOM     21  O5  UNL     1      28.729 -10.088 -33.837  0.00  0.00    +0.000 OA
ATOM     22  H23 UNL     1      28.636  -9.413 -33.115  0.00  0.00    +0.000 HD
ENDBRANCH  20  21
ENDBRANCH   6  20
TORSDOF 10
ENDMDL
