MODEL 1
REMARK VINA RESULT:    -5.729      0.000      0.000
REMARK INTER + INTRA:          -6.399
REMARK INTER:                  -6.399
REMARK INTRA:                   0.000
REMARK UNBOUND:                 0.000
REMARK  Name = resultss/4CJN/ligands/lig_295_t0.pdb
REMARK  4 active torsions:
REMARK  status: ('A' for Active; 'I' for Inactive)
REMARK    1  A    between atoms: C3_4  and  O2_5
REMARK    2  A    between atoms: C5_7  and  O3_8
REMARK    3  A    between atoms: C11_15  and  O5_16
REMARK    4  A    between atoms: C12_17  and  O6_18
REMARK                            x       y       z     vdW  Elec       q    Type
REMARK                         _______ _______ _______ _____ _____    ______ ____
ROOT
ATOM      1  O1  UNL     1      24.797  -8.516 -38.154  0.00  0.00    +0.000 OA
ATOM      2  C1  UNL     1      25.420  -8.726 -37.084  0.00  0.00    +0.000 A 
ATOM      3  C2  UNL     1      24.811  -8.423 -35.838  0.00  0.00    +0.000 A 
ATOM      4  C3  UNL     1      23.496  -7.882 -35.687  0.00  0.00    +0.000 A 
ATOM      5  C4  UNL     1      22.948  -7.739 -34.406  0.00  0.00    +0.000 A 
ATOM      6  C5  UNL     1      23.688  -8.051 -33.267  0.00  0.00    +0.000 A 
ATOM      7  C6  UNL     1      24.995  -8.519 -33.400  0.00  0.00    +0.000 A 
ATOM      8  C7  UNL     1      25.555  -8.708 -34.665  0.00  0.00    +0.000 A 
ATOM      9  O4  UNL     1      26.798  -9.158 -34.741  0.00  0.00    +0.000 OA
ATOM     10  C8  UNL     1      27.409  -9.414 -35.888  0.00  0.00    +0.000 A 
ATOM     11  C9  UNL     1      28.739  -9.837 -35.850  0.00  0.00    +0.000 A 
ATOM     12  C10 UNL     1      29.426 -10.106 -37.028  0.00  0.00    +0.000 A 
ATOM     13  C11 UNL     1      28.779 -10.004 -38.259  0.00  0.00    +0.000 A 
ATOM     14  C12 UNL     1      27.426  -9.620 -38.324  0.00  0.00    +0.000 A 
ATOM     15  C13 UNL     1      26.734  -9.261 -37.123  0.00  0.00    +0.000 A 
ENDROOT
BRANCH   4  16
ATOM     16  O2  UNL     1      22.696  -7.449 -36.750  0.00  0.00    +0.000 OA
ATOM     17  H1  UNL     1      21.691  -7.368 -36.723  0.00  0.00    +0.000 HD
ENDBRANCH   4  16
BRANCH   6  18
ATOM     18  O3  UNL     1      23.117  -7.880 -32.008  0.00  0.00    +0.000 OA
ATOM     19  H3  UNL     1      22.119  -7.971 -31.863  0.00  0.00    +0.000 HD
ENDBRANCH   6  18
BRANCH  13  20
ATOM     20  O5  UNL     1      29.500 -10.308 -39.415  0.00  0.00    +0.000 OA
ATOM     21  H7  UNL     1      30.451 -10.657 -39.386  0.00  0.00    +0.000 HD
ENDBRANCH  13  20
BRANCH  14  22
ATOM     22  O6  UNL     1      26.819  -9.643 -39.584  0.00  0.00    +0.000 OA
ATOM     23  H8  UNL     1      26.437  -8.834 -40.051  0.00  0.00    +0.000 HD
ENDBRANCH  14  22
TORSDOF 4
ENDMDL
MODEL 2
REMARK VINA RESULT:    -5.351      6.046      8.512
REMARK INTER + INTRA:          -5.976
REMARK INTER:                  -5.976
REMARK INTRA:                   0.000
REMARK UNBOUND:                 0.000
REMARK  Name = resultss/4CJN/ligands/lig_295_t0.pdb
REMARK  4 active torsions:
REMARK  status: ('A' for Active; 'I' for Inactive)
REMARK    1  A    between atoms: C3_4  and  O2_5
REMARK    2  A    between atoms: C5_7  and  O3_8
REMARK    3  A    between atoms: C11_15  and  O5_16
REMARK    4  A    between atoms: C12_17  and  O6_18
REMARK                            x       y       z     vdW  Elec       q    Type
REMARK                         _______ _______ _______ _____ _____    ______ ____
ROOT
ATOM      1  O1  UNL     1      25.377 -10.295 -41.290  0.00  0.00    +0.000 OA
ATOM      2  C1  UNL     1      26.109  -9.655 -42.083  0.00  0.00    +0.000 A 
ATOM      3  C2  UNL     1      27.522  -9.756 -41.983  0.00  0.00    +0.000 A 
ATOM      4  C3  UNL     1      28.212 -10.558 -41.021  0.00  0.00    +0.000 A 
ATOM      5  C4  UNL     1      29.605 -10.681 -41.093  0.00  0.00    +0.000 A 
ATOM      6  C5  UNL     1      30.342  -9.979 -42.045  0.00  0.00    +0.000 A 
ATOM      7  C6  UNL     1      29.686  -9.143 -42.947  0.00  0.00    +0.000 A 
ATOM      8  C7  UNL     1      28.294  -9.030 -42.925  0.00  0.00    +0.000 A 
ATOM      9  O4  UNL     1      27.715  -8.226 -43.804  0.00  0.00    +0.000 OA
ATOM     10  C8  UNL     1      26.402  -8.079 -43.899  0.00  0.00    +0.000 A 
ATOM     11  C9  UNL     1      25.904  -7.166 -44.829  0.00  0.00    +0.000 A 
ATOM     12  C10 UNL     1      24.534  -6.968 -44.957  0.00  0.00    +0.000 A 
ATOM     13  C11 UNL     1      23.640  -7.716 -44.191  0.00  0.00    +0.000 A 
ATOM     14  C12 UNL     1      24.115  -8.675 -43.275  0.00  0.00    +0.000 A 
ATOM     15  C13 UNL     1      25.524  -8.827 -43.077  0.00  0.00    +0.000 A 
ENDROOT
BRANCH   4  16
ATOM     16  O2  UNL     1      27.588 -11.234 -39.966  0.00  0.00    +0.000 OA
ATOM     17  H1  UNL     1      27.001 -10.802 -39.269  0.00  0.00    +0.000 HD
ENDBRANCH   4  16
BRANCH   6  18
ATOM     18  O3  UNL     1      31.729 -10.112 -42.076  0.00  0.00    +0.000 OA
ATOM     19  H3  UNL     1      32.312  -9.455 -42.580  0.00  0.00    +0.000 HD
ENDBRANCH   6  18
BRANCH  13  20
ATOM     20  O5  UNL     1      22.272  -7.503 -44.370  0.00  0.00    +0.000 OA
ATOM     21  H7  UNL     1      21.732  -6.903 -43.759  0.00  0.00    +0.000 HD
ENDBRANCH  13  20
BRANCH  14  22
ATOM     22  O6  UNL     1      23.157  -9.458 -42.622  0.00  0.00    +0.000 OA
ATOM     23  H8  UNL     1      23.283  -9.876 -41.712  0.00  0.00    +0.000 HD
ENDBRANCH  14  22
TORSDOF 4
ENDMDL
MODEL 3
REMARK VINA RESULT:    -5.299      1.888      6.128
REMARK INTER + INTRA:          -5.919
REMARK INTER:                  -5.919
REMARK INTRA:                   0.000
REMARK UNBOUND:                 0.000
REMARK  Name = resultss/4CJN/ligands/lig_295_t0.pdb
REMARK  4 active torsions:
REMARK  status: ('A' for Active; 'I' for Inactive)
REMARK    1  A    between atoms: C3_4  and  O2_5
REMARK    2  A    between atoms: C5_7  and  O3_8
REMARK    3  A    between atoms: C11_15  and  O5_16
REMARK    4  A    between atoms: C12_17  and  O6_18
REMARK                            x       y       z     vdW  Elec       q    Type
REMARK                         _______ _______ _______ _____ _____    ______ ____
ROOT
ATOM      1  O1  UNL     1      27.997 -10.356 -36.917  0.00  0.00    +0.000 OA
ATOM      2  C1  UNL     1      27.006  -9.757 -37.403  0.00  0.00    +0.000 A 
ATOM      3  C2  UNL     1      26.882  -9.616 -38.811  0.00  0.00    +0.000 A 
ATOM      4  C3  UNL     1      27.823 -10.120 -39.763  0.00  0.00    +0.000 A 
ATOM      5  C4  UNL     1      27.538 -10.034 -41.131  0.00  0.00    +0.000 A 
ATOM      6  C5  UNL     1      26.383  -9.402 -41.587  0.00  0.00    +0.000 A 
ATOM      7  C6  UNL     1      25.489  -8.849 -40.671  0.00  0.00    +0.000 A 
ATOM      8  C7  UNL     1      25.727  -8.953 -39.298  0.00  0.00    +0.000 A 
ATOM      9  O4  UNL     1      24.849  -8.417 -38.466  0.00  0.00    +0.000 OA
ATOM     10  C8  UNL     1      24.954  -8.496 -37.148  0.00  0.00    +0.000 A 
ATOM     11  C9  UNL     1      23.995  -7.849 -36.366  0.00  0.00    +0.000 A 
ATOM     12  C10 UNL     1      24.072  -7.894 -34.979  0.00  0.00    +0.000 A 
ATOM     13  C11 UNL     1      25.078  -8.627 -34.353  0.00  0.00    +0.000 A 
ATOM     14  C12 UNL     1      26.033  -9.325 -35.117  0.00  0.00    +0.000 A 
ATOM     15  C13 UNL     1      26.013  -9.217 -36.544  0.00  0.00    +0.000 A 
ENDROOT
BRANCH   4  16
ATOM     16  O2  UNL     1      29.055 -10.691 -39.425  0.00  0.00    +0.000 OA
ATOM     17  H1  UNL     1      29.318 -10.993 -38.500  0.00  0.00    +0.000 HD
ENDBRANCH   4  16
BRANCH   6  18
ATOM     18  O3  UNL     1      26.140  -9.319 -42.957  0.00  0.00    +0.000 OA
ATOM     19  H3  UNL     1      25.419  -8.713 -43.331  0.00  0.00    +0.000 HD
ENDBRANCH   6  18
BRANCH  13  20
ATOM     20  O5  UNL     1      25.101  -8.666 -32.957  0.00  0.00    +0.000 OA
ATOM     21  H7  UNL     1      25.737  -8.099 -32.409  0.00  0.00    +0.000 HD
ENDBRANCH  13  20
BRANCH  14  22
ATOM     22  O6  UNL     1      26.946 -10.123 -34.418  0.00  0.00    +0.000 OA
ATOM     23  H8  UNL     1      27.772  -9.775 -33.954  0.00  0.00    +0.000 HD
ENDBRANCH  14  22
TORSDOF 4
ENDMDL
MODEL 4
REMARK VINA RESULT:    -5.227      2.121      3.976
REMARK INTER + INTRA:          -5.839
REMARK INTER:                  -5.839
REMARK INTRA:                   0.000
REMARK UNBOUND:                 0.000
REMARK  Name = resultss/4CJN/ligands/lig_295_t0.pdb
REMARK  4 active torsions:
REMARK  status: ('A' for Active; 'I' for Inactive)
REMARK    1  A    between atoms: C3_4  and  O2_5
REMARK    2  A    between atoms: C5_7  and  O3_8
REMARK    3  A    between atoms: C11_15  and  O5_16
REMARK    4  A    between atoms: C12_17  and  O6_18
REMARK                            x       y       z     vdW  Elec       q    Type
REMARK                         _______ _______ _______ _____ _____    ______ ____
ROOT
ATOM      1  O1  UNL     1      24.575  -8.876 -37.848  0.00  0.00    +0.000 OA
ATOM      2  C1  UNL     1      25.783  -9.189 -37.990  0.00  0.00    +0.000 A 
ATOM      3  C2  UNL     1      26.615  -9.340 -36.849  0.00  0.00    +0.000 A 
ATOM      4  C3  UNL     1      26.179  -9.166 -35.498  0.00  0.00    +0.000 A 
ATOM      5  C4  UNL     1      27.053  -9.463 -34.445  0.00  0.00    +0.000 A 
ATOM      6  C5  UNL     1      28.366  -9.861 -34.689  0.00  0.00    +0.000 A 
ATOM      7  C6  UNL     1      28.821  -9.972 -36.002  0.00  0.00    +0.000 A 
ATOM      8  C7  UNL     1      27.963  -9.720 -37.074  0.00  0.00    +0.000 A 
ATOM      9  O4  UNL     1      28.438  -9.842 -38.303  0.00  0.00    +0.000 OA
ATOM     10  C8  UNL     1      27.700  -9.669 -39.389  0.00  0.00    +0.000 A 
ATOM     11  C9  UNL     1      28.320  -9.774 -40.635  0.00  0.00    +0.000 A 
ATOM     12  C10 UNL     1      27.588  -9.589 -41.802  0.00  0.00    +0.000 A 
ATOM     13  C11 UNL     1      26.217  -9.345 -41.742  0.00  0.00    +0.000 A 
ATOM     14  C12 UNL     1      25.558  -9.277 -40.500  0.00  0.00    +0.000 A 
ATOM     15  C13 UNL     1      26.316  -9.384 -39.291  0.00  0.00    +0.000 A 
ENDROOT
BRANCH   4  16
ATOM     16  O2  UNL     1      24.917  -8.686 -35.133  0.00  0.00    +0.000 OA
ATOM     17  H1  UNL     1      24.349  -9.059 -34.388  0.00  0.00    +0.000 HD
ENDBRANCH   4  16
BRANCH   6  18
ATOM     18  O3  UNL     1      29.213 -10.132 -33.616  0.00  0.00    +0.000 OA
ATOM     19  H3  UNL     1      28.911 -10.701 -32.834  0.00  0.00    +0.000 HD
ENDBRANCH   6  18
BRANCH  13  20
ATOM     20  O5  UNL     1      25.517  -9.191 -42.941  0.00  0.00    +0.000 OA
ATOM     21  H7  UNL     1      24.970  -8.364 -43.148  0.00  0.00    +0.000 HD
ENDBRANCH  13  20
BRANCH  14  22
ATOM     22  O6  UNL     1      24.166  -9.136 -40.525  0.00  0.00    +0.000 OA
ATOM     23  H8  UNL     1      23.542  -9.714 -41.069  0.00  0.00    +0.000 HD
ENDBRANCH  14  22
TORSDOF 4
ENDMDL
MODEL 5
REMARK VINA RESULT:    -5.124      1.227      6.171
REMARK INTER + INTRA:          -5.723
REMARK INTER:                  -5.723
REMARK INTRA:                   0.000
REMARK UNBOUND:                 0.000
REMARK  Name = resultss/4CJN/ligands/lig_295_t0.pdb
REMARK  4 active torsions:
REMARK  status: ('A' for Active; 'I' for Inactive)
REMARK    1  A    between atoms: C3_4  and  O2_5
REMARK    2  A    between atoms: C5_7  and  O3_8
REMARK    3  A    between atoms: C11_15  and  O5_16
REMARK    4  A    between atoms: C12_17  and  O6_18
REMARK                            x       y       z     vdW  Elec       q    Type
REMARK                         _______ _______ _______ _____ _____    ______ ____
ROOT
ATOM      1  O1  UNL     1      27.210  -9.219 -34.428  0.00  0.00    +0.000 OA
ATOM      2  C1  UNL     1      26.394  -8.944 -35.341  0.00  0.00    +0.000 A 
ATOM      3  C2  UNL     1      26.736  -9.194 -36.697  0.00  0.00    +0.000 A 
ATOM      4  C3  UNL     1      27.977  -9.758 -37.131  0.00  0.00    +0.000 A 
ATOM      5  C4  UNL     1      28.157 -10.077 -38.482  0.00  0.00    +0.000 A 
ATOM      6  C5  UNL     1      27.175  -9.791 -39.428  0.00  0.00    +0.000 A 
ATOM      7  C6  UNL     1      25.987  -9.182 -39.026  0.00  0.00    +0.000 A 
ATOM      8  C7  UNL     1      25.761  -8.887 -37.680  0.00  0.00    +0.000 A 
ATOM      9  O4  UNL     1      24.616  -8.312 -37.346  0.00  0.00    +0.000 OA
ATOM     10  C8  UNL     1      24.282  -8.029 -36.096  0.00  0.00    +0.000 A 
ATOM     11  C9  UNL     1      23.070  -7.376 -35.865  0.00  0.00    +0.000 A 
ATOM     12  C10 UNL     1      22.683  -7.049 -34.571  0.00  0.00    +0.000 A 
ATOM     13  C11 UNL     1      23.478  -7.412 -33.485  0.00  0.00    +0.000 A 
ATOM     14  C12 UNL     1      24.685  -8.110 -33.686  0.00  0.00    +0.000 A 
ATOM     15  C13 UNL     1      25.132  -8.379 -35.018  0.00  0.00    +0.000 A 
ENDROOT
BRANCH   4  16
ATOM     16  O2  UNL     1      29.066 -10.003 -36.288  0.00  0.00    +0.000 OA
ATOM     17  H1  UNL     1      28.999 -10.312 -35.330  0.00  0.00    +0.000 HD
ENDBRANCH   4  16
BRANCH   6  18
ATOM     18  O3  UNL     1      27.396 -10.107 -40.766  0.00  0.00    +0.000 OA
ATOM     19  H3  UNL     1      27.830  -9.447 -41.401  0.00  0.00    +0.000 HD
ENDBRANCH   6  18
BRANCH  13  20
ATOM     20  O5  UNL     1      23.037  -7.085 -32.201  0.00  0.00    +0.000 OA
ATOM     21  H7  UNL     1      22.300  -6.412 -32.035  0.00  0.00    +0.000 HD
ENDBRANCH  13  20
BRANCH  14  22
ATOM     22  O6  UNL     1      25.372  -8.533 -32.543  0.00  0.00    +0.000 OA
ATOM     23  H8  UNL     1      25.847  -7.917 -31.900  0.00  0.00    +0.000 HD
ENDBRANCH  14  22
TORSDOF 4
ENDMDL
MODEL 6
REMARK VINA RESULT:    -5.122      1.911      5.293
REMARK INTER + INTRA:          -5.721
REMARK INTER:                  -5.721
REMARK INTRA:                   0.000
REMARK UNBOUND:                 0.000
REMARK  Name = resultss/4CJN/ligands/lig_295_t0.pdb
REMARK  4 active torsions:
REMARK  status: ('A' for Active; 'I' for Inactive)
REMARK    1  A    between atoms: C3_4  and  O2_5
REMARK    2  A    between atoms: C5_7  and  O3_8
REMARK    3  A    between atoms: C11_15  and  O5_16
REMARK    4  A    between atoms: C12_17  and  O6_18
REMARK                            x       y       z     vdW  Elec       q    Type
REMARK                         _______ _______ _______ _____ _____    ______ ____
ROOT
ATOM      1  O1  UNL     1      26.377  -9.183 -37.114  0.00  0.00    +0.000 OA
ATOM      2  C1  UNL     1      26.314  -8.839 -35.908  0.00  0.00    +0.000 A 
ATOM      3  C2  UNL     1      27.427  -9.048 -35.051  0.00  0.00    +0.000 A 
ATOM      4  C3  UNL     1      28.666  -9.636 -35.459  0.00  0.00    +0.000 A 
ATOM      5  C4  UNL     1      29.740  -9.679 -34.562  0.00  0.00    +0.000 A 
ATOM      6  C5  UNL     1      29.604  -9.222 -33.252  0.00  0.00    +0.000 A 
ATOM      7  C6  UNL     1      28.381  -8.706 -32.825  0.00  0.00    +0.000 A 
ATOM      8  C7  UNL     1      27.303  -8.614 -33.707  0.00  0.00    +0.000 A 
ATOM      9  O4  UNL     1      26.163  -8.114 -33.256  0.00  0.00    +0.000 OA
ATOM     10  C8  UNL     1      25.094  -7.941 -34.018  0.00  0.00    +0.000 A 
ATOM     11  C9  UNL     1      23.929  -7.452 -33.425  0.00  0.00    +0.000 A 
ATOM     12  C10 UNL     1      22.778  -7.266 -34.182  0.00  0.00    +0.000 A 
ATOM     13  C11 UNL     1      22.788  -7.520 -35.552  0.00  0.00    +0.000 A 
ATOM     14  C12 UNL     1      23.962  -7.973 -36.185  0.00  0.00    +0.000 A 
ATOM     15  C13 UNL     1      25.127  -8.246 -35.401  0.00  0.00    +0.000 A 
ENDROOT
BRANCH   4  16
ATOM     16  O2  UNL     1      28.889 -10.209 -36.716  0.00  0.00    +0.000 OA
ATOM     17  H1  UNL     1      29.648 -10.834 -36.939  0.00  0.00    +0.000 HD
ENDBRANCH   4  16
BRANCH   6  18
ATOM     18  O3  UNL     1      30.689  -9.297 -32.382  0.00  0.00    +0.000 OA
ATOM     19  H3  UNL     1      30.742  -8.719 -31.551  0.00  0.00    +0.000 HD
ENDBRANCH   6  18
BRANCH  13  20
ATOM     20  O5  UNL     1      21.617  -7.294 -36.278  0.00  0.00    +0.000 OA
ATOM     21  H7  UNL     1      21.374  -6.383 -36.647  0.00  0.00    +0.000 HD
ENDBRANCH  13  20
BRANCH  14  22
ATOM     22  O6  UNL     1      23.923  -8.102 -37.578  0.00  0.00    +0.000 OA
ATOM     23  H8  UNL     1      24.569  -8.658 -38.119  0.00  0.00    +0.000 HD
ENDBRANCH  14  22
TORSDOF 4
ENDMDL
MODEL 7
REMARK VINA RESULT:    -5.118      1.304      5.623
REMARK INTER + INTRA:          -5.717
REMARK INTER:                  -5.717
REMARK INTRA:                   0.000
REMARK UNBOUND:                 0.000
REMARK  Name = resultss/4CJN/ligands/lig_295_t0.pdb
REMARK  4 active torsions:
REMARK  status: ('A' for Active; 'I' for Inactive)
REMARK    1  A    between atoms: C3_4  and  O2_5
REMARK    2  A    between atoms: C5_7  and  O3_8
REMARK    3  A    between atoms: C11_15  and  O5_16
REMARK    4  A    between atoms: C12_17  and  O6_18
REMARK                            x       y       z     vdW  Elec       q    Type
REMARK                         _______ _______ _______ _____ _____    ______ ____
ROOT
ATOM      1  O1  UNL     1      24.561  -7.536 -38.289  0.00  0.00    +0.000 OA
ATOM      2  C1  UNL     1      25.360  -8.301 -37.697  0.00  0.00    +0.000 A 
ATOM      3  C2  UNL     1      26.405  -8.935 -38.421  0.00  0.00    +0.000 A 
ATOM      4  C3  UNL     1      26.639  -8.766 -39.822  0.00  0.00    +0.000 A 
ATOM      5  C4  UNL     1      27.774  -9.340 -40.408  0.00  0.00    +0.000 A 
ATOM      6  C5  UNL     1      28.646 -10.133 -39.665  0.00  0.00    +0.000 A 
ATOM      7  C6  UNL     1      28.393 -10.357 -38.312  0.00  0.00    +0.000 A 
ATOM      8  C7  UNL     1      27.291  -9.767 -37.690  0.00  0.00    +0.000 A 
ATOM      9  O4  UNL     1      27.093 -10.006 -36.403  0.00  0.00    +0.000 OA
ATOM     10  C8  UNL     1      26.106  -9.463 -35.706  0.00  0.00    +0.000 A 
ATOM     11  C9  UNL     1      25.963  -9.826 -34.366  0.00  0.00    +0.000 A 
ATOM     12  C10 UNL     1      24.935  -9.291 -33.599  0.00  0.00    +0.000 A 
ATOM     13  C11 UNL     1      24.064  -8.349 -34.145  0.00  0.00    +0.000 A 
ATOM     14  C12 UNL     1      24.212  -7.933 -35.482  0.00  0.00    +0.000 A 
ATOM     15  C13 UNL     1      25.215  -8.538 -36.304  0.00  0.00    +0.000 A 
ENDROOT
BRANCH   4  16
ATOM     16  O2  UNL     1      25.785  -8.070 -40.684  0.00  0.00    +0.000 OA
ATOM     17  H1  UNL     1      24.816  -8.298 -40.847  0.00  0.00    +0.000 HD
ENDBRANCH   4  16
BRANCH   6  18
ATOM     18  O3  UNL     1      29.756 -10.702 -40.285  0.00  0.00    +0.000 OA
ATOM     19  H3  UNL     1      29.945 -11.695 -40.224  0.00  0.00    +0.000 HD
ENDBRANCH   6  18
BRANCH  13  20
ATOM     20  O5  UNL     1      23.062  -7.820 -33.329  0.00  0.00    +0.000 OA
ATOM     21  H7  UNL     1      22.095  -7.767 -33.624  0.00  0.00    +0.000 HD
ENDBRANCH  13  20
BRANCH  14  22
ATOM     22  O6  UNL     1      23.369  -6.908 -35.925  0.00  0.00    +0.000 OA
ATOM     23  H8  UNL     1      23.109  -6.757 -36.889  0.00  0.00    +0.000 HD
ENDBRANCH  14  22
TORSDOF 4
ENDMDL
MODEL 8
REMARK VINA RESULT:    -5.042      5.723      7.225
REMARK INTER + INTRA:          -5.632
REMARK INTER:                  -5.632
REMARK INTRA:                   0.000
REMARK UNBOUND:                 0.000
REMARK  Name = resultss/4CJN/ligands/lig_295_t0.pdb
REMARK  4 active torsions:
REMARK  status: ('A' for Active; 'I' for Inactive)
REMARK    1  A    between atoms: C3_4  and  O2_5
REMARK    2  A    between atoms: C5_7  and  O3_8
REMARK    3  A    between atoms: C11_15  and  O5_16
REMARK    4  A    between atoms: C12_17  and  O6_18
REMARK                            x       y       z     vdW  Elec       q    Type
REMARK                         _______ _______ _______ _____ _____    ______ ____
ROOT
ATOM      1  O1  UNL     1      27.501  -7.823 -44.282  0.00  0.00    +0.000 OA
ATOM      2  C1  UNL     1      26.768  -8.404 -43.445  0.00  0.00    +0.000 A 
ATOM      3  C2  UNL     1      25.372  -8.144 -43.424  0.00  0.00    +0.000 A 
ATOM      4  C3  UNL     1      24.700  -7.246 -44.312  0.00  0.00    +0.000 A 
ATOM      5  C4  UNL     1      23.303  -7.161 -44.285  0.00  0.00    +0.000 A 
ATOM      6  C5  UNL     1      22.555  -7.886 -43.359  0.00  0.00    +0.000 A 
ATOM      7  C6  UNL     1      23.204  -8.716 -42.446  0.00  0.00    +0.000 A 
ATOM      8  C7  UNL     1      24.593  -8.851 -42.473  0.00  0.00    +0.000 A 
ATOM      9  O4  UNL     1      25.164  -9.653 -41.588  0.00  0.00    +0.000 OA
ATOM     10  C8  UNL     1      26.468  -9.887 -41.555  0.00  0.00    +0.000 A 
ATOM     11  C9  UNL     1      26.967 -10.712 -40.545  0.00  0.00    +0.000 A 
ATOM     12  C10 UNL     1      28.329 -10.977 -40.462  0.00  0.00    +0.000 A 
ATOM     13  C11 UNL     1      29.206 -10.461 -41.415  0.00  0.00    +0.000 A 
ATOM     14  C12 UNL     1      28.724  -9.661 -42.469  0.00  0.00    +0.000 A 
ATOM     15  C13 UNL     1      27.336  -9.315 -42.516  0.00  0.00    +0.000 A 
ENDROOT
BRANCH   4  16
ATOM     16  O2  UNL     1      25.351  -6.403 -45.219  0.00  0.00    +0.000 OA
ATOM     17  H1  UNL     1      25.196  -6.396 -46.216  0.00  0.00    +0.000 HD
ENDBRANCH   4  16
BRANCH   6  18
ATOM     18  O3  UNL     1      21.167  -7.764 -43.349  0.00  0.00    +0.000 OA
ATOM     19  H3  UNL     1      20.710  -6.956 -42.944  0.00  0.00    +0.000 HD
ENDBRANCH   6  18
BRANCH  13  20
ATOM     20  O5  UNL     1      30.562 -10.774 -41.307  0.00  0.00    +0.000 OA
ATOM     21  H7  UNL     1      30.888 -11.704 -41.071  0.00  0.00    +0.000 HD
ENDBRANCH  13  20
BRANCH  14  22
ATOM     22  O6  UNL     1      29.648  -9.270 -43.444  0.00  0.00    +0.000 OA
ATOM     23  H8  UNL     1      30.611  -9.033 -43.257  0.00  0.00    +0.000 HD
ENDBRANCH  14  22
TORSDOF 4
ENDMDL
MODEL 9
REMARK VINA RESULT:    -5.006      2.477      6.488
REMARK INTER + INTRA:          -5.591
REMARK INTER:                  -5.591
REMARK INTRA:                   0.000
REMARK UNBOUND:                 0.000
REMARK  Name = resultss/4CJN/ligands/lig_295_t0.pdb
REMARK  4 active torsions:
REMARK  status: ('A' for Active; 'I' for Inactive)
REMARK    1  A    between atoms: C3_4  and  O2_5
REMARK    2  A    between atoms: C5_7  and  O3_8
REMARK    3  A    between atoms: C11_15  and  O5_16
REMARK    4  A    between atoms: C12_17  and  O6_18
REMARK                            x       y       z     vdW  Elec       q    Type
REMARK                         _______ _______ _______ _____ _____    ______ ____
ROOT
ATOM      1  O1  UNL     1      25.149  -8.778 -40.259  0.00  0.00    +0.000 OA
ATOM      2  C1  UNL     1      26.263  -9.154 -39.819  0.00  0.00    +0.000 A 
ATOM      3  C2  UNL     1      27.304  -9.496 -40.722  0.00  0.00    +0.000 A 
ATOM      4  C3  UNL     1      27.191  -9.445 -42.147  0.00  0.00    +0.000 A 
ATOM      5  C4  UNL     1      28.320  -9.684 -42.940  0.00  0.00    +0.000 A 
ATOM      6  C5  UNL     1      29.540 -10.041 -42.368  0.00  0.00    +0.000 A 
ATOM      7  C6  UNL     1      29.645 -10.158 -40.983  0.00  0.00    +0.000 A 
ATOM      8  C7  UNL     1      28.547  -9.888 -40.163  0.00  0.00    +0.000 A 
ATOM      9  O4  UNL     1      28.696 -10.008 -38.854  0.00  0.00    +0.000 OA
ATOM     10  C8  UNL     1      27.734  -9.735 -37.985  0.00  0.00    +0.000 A 
ATOM     11  C9  UNL     1      27.987  -9.946 -36.628  0.00  0.00    +0.000 A 
ATOM     12  C10 UNL     1      27.005  -9.685 -35.681  0.00  0.00    +0.000 A 
ATOM     13  C11 UNL     1      25.773  -9.162 -36.069  0.00  0.00    +0.000 A 
ATOM     14  C12 UNL     1      25.506  -8.898 -37.427  0.00  0.00    +0.000 A 
ATOM     15  C13 UNL     1      26.480  -9.241 -38.418  0.00  0.00    +0.000 A 
ENDROOT
BRANCH   4  16
ATOM     16  O2  UNL     1      26.000  -9.187 -42.834  0.00  0.00    +0.000 OA
ATOM     17  H1  UNL     1      25.783  -9.519 -43.761  0.00  0.00    +0.000 HD
ENDBRANCH   4  16
BRANCH   6  18
ATOM     18  O3  UNL     1      30.638 -10.289 -43.189  0.00  0.00    +0.000 OA
ATOM     19  H3  UNL     1      30.779 -11.192 -43.627  0.00  0.00    +0.000 HD
ENDBRANCH   6  18
BRANCH  13  20
ATOM     20  O5  UNL     1      24.825  -8.890 -35.081  0.00  0.00    +0.000 OA
ATOM     21  H7  UNL     1      25.019  -8.283 -34.294  0.00  0.00    +0.000 HD
ENDBRANCH  13  20
BRANCH  14  22
ATOM     22  O6  UNL     1      24.290  -8.276 -37.726  0.00  0.00    +0.000 OA
ATOM     23  H8  UNL     1      23.639  -7.928 -37.037  0.00  0.00    +0.000 HD
ENDBRANCH  14  22
TORSDOF 4
ENDMDL
