MODEL 1
REMARK VINA RESULT:    -7.827      0.000      0.000
REMARK INTER + INTRA:         -12.634
REMARK INTER:                 -11.487
REMARK INTRA:                  -1.147
REMARK UNBOUND:                -1.147
REMARK  Name = resultss/4CJN/ligands/lig_440_t0.pdb
REMARK  10 active torsions:
REMARK  status: ('A' for Active; 'I' for Inactive)
REMARK    1  A    between atoms: C1_1  and  O1_2
REMARK    2  A    between atoms: O1_2  and  C2_3
REMARK    3  A    between atoms: C4_5  and  N1_6
REMARK    4  A    between atoms: N1_6  and  C5_7
REMARK    5  A    between atoms: C5_7  and  N2_9
REMARK    6  A    between atoms: N2_9  and  N3_10
REMARK    7  A    between atoms: C6_11  and  C7_13
REMARK    8  A    between atoms: C17_24  and  C18_25
REMARK    9  A    between atoms: C25_33  and  O3_34
REMARK   10  A    between atoms: O3_34  and  C26_35
REMARK                            x       y       z     vdW  Elec       q    Type
REMARK                         _______ _______ _______ _____ _____    ______ ____
ROOT
ATOM      1  N3  UNL     1      23.941  -9.371 -41.686  0.00  0.00    +0.000 N 
ATOM      2  C6  UNL     1      25.277  -9.616 -42.153  0.00  0.00    +0.000 C 
ATOM      3  O2  UNL     1      25.496  -9.732 -43.389  0.00  0.00    +0.000 OA
ATOM      4  H7  UNL     1      23.757  -9.374 -40.659  0.00  0.00    +0.000 HD
ENDROOT
BRANCH   2   5
ATOM      5  C7  UNL     1      26.399  -9.739 -41.196  0.00  0.00    +0.000 A 
ATOM      6  C8  UNL     1      26.192  -9.543 -39.814  0.00  0.00    +0.000 A 
ATOM      7  C9  UNL     1      27.290  -9.702 -38.976  0.00  0.00    +0.000 A 
ATOM      8  C10 UNL     1      28.539 -10.030 -39.460  0.00  0.00    +0.000 A 
ATOM      9  N4  UNL     1      29.428 -10.195 -38.451  0.00  0.00    +0.000 N 
ATOM     10  C11 UNL     1      28.724  -9.945 -37.325  0.00  0.00    +0.000 A 
ATOM     11  C12 UNL     1      29.191  -9.992 -36.011  0.00  0.00    +0.000 A 
ATOM     12  C13 UNL     1      28.281  -9.706 -34.977  0.00  0.00    +0.000 A 
ATOM     13  C14 UNL     1      26.936  -9.392 -35.272  0.00  0.00    +0.000 A 
ATOM     14  C15 UNL     1      26.485  -9.359 -36.605  0.00  0.00    +0.000 A 
ATOM     15  C16 UNL     1      27.410  -9.638 -37.607  0.00  0.00    +0.000 A 
ATOM     16  C17 UNL     1      28.738 -10.202 -40.836  0.00  0.00    +0.000 A 
ATOM     17  N5  UNL     1      27.652 -10.060 -41.656  0.00  0.00    +0.000 NA
ATOM     18  H9  UNL     1      30.428 -10.488 -38.510  0.00  0.00    +0.000 HD
BRANCH  16  19
ATOM     19  C18 UNL     1      30.052 -10.530 -41.427  0.00  0.00    +0.000 A 
ATOM     20  C19 UNL     1      31.201  -9.787 -41.097  0.00  0.00    +0.000 A 
ATOM     21  C20 UNL     1      32.431 -10.091 -41.690  0.00  0.00    +0.000 A 
ATOM     22  C21 UNL     1      32.525 -11.125 -42.621  0.00  0.00    +0.000 A 
ATOM     23  C22 UNL     1      31.385 -11.853 -42.973  0.00  0.00    +0.000 A 
ATOM     24  C23 UNL     1      30.151 -11.553 -42.385  0.00  0.00    +0.000 A 
ENDBRANCH  16  19
ENDBRANCH   2   5
BRANCH   1  25
ATOM     25  N2  UNL     1      22.895  -9.101 -42.590  0.00  0.00    +0.000 N 
ATOM     26  H6  UNL     1      22.295  -9.886 -42.931  0.00  0.00    +0.000 HD
BRANCH  25  27
ATOM     27  C5  UNL     1      22.619  -7.786 -43.094  0.00  0.00    +0.000 C 
ATOM     28  S1  UNL     1      21.149  -7.080 -42.860  0.00  0.00    +0.000 S 
BRANCH  27  29
ATOM     29  N1  UNL     1      23.683  -7.045 -43.714  0.00  0.00    +0.000 N 
ATOM     30  H5  UNL     1      24.285  -6.457 -43.096  0.00  0.00    +0.000 HD
BRANCH  29  33
ATOM     31  C2  UNL     1      25.584  -6.995 -46.936  0.00  0.00    +0.000 A 
ATOM     32  C3  UNL     1      25.282  -6.962 -45.570  0.00  0.00    +0.000 A 
ATOM     33  C4  UNL     1      23.956  -7.044 -45.126  0.00  0.00    +0.000 A 
ATOM     34  C24 UNL     1      22.924  -7.197 -46.066  0.00  0.00    +0.000 A 
ATOM     35  C25 UNL     1      23.205  -7.246 -47.437  0.00  0.00    +0.000 A 
ATOM     36  C27 UNL     1      24.540  -7.135 -47.871  0.00  0.00    +0.000 A 
BRANCH  31  38
ATOM     37  C1  UNL     1      28.033  -7.075 -46.443  0.00  0.00    +0.000 C 
ATOM     38  O1  UNL     1      26.928  -6.887 -47.320  0.00  0.00    +0.000 OA
ENDBRANCH  31  38
BRANCH  35  39
ATOM     39  O3  UNL     1      22.135  -7.413 -48.329  0.00  0.00    +0.000 OA
ATOM     40  C26 UNL     1      20.821  -6.902 -48.121  0.00  0.00    +0.000 C 
ENDBRANCH  35  39
ENDBRANCH  29  33
ENDBRANCH  27  29
ENDBRANCH  25  27
ENDBRANCH   1  25
TORSDOF 8
ENDMDL
MODEL 2
REMARK VINA RESULT:    -7.263      3.351      6.668
REMARK INTER + INTRA:         -11.807
REMARK INTER:                 -11.005
REMARK INTRA:                  -0.802
REMARK UNBOUND:                -1.147
REMARK  Name = resultss/4CJN/ligands/lig_440_t0.pdb
REMARK  10 active torsions:
REMARK  status: ('A' for Active; 'I' for Inactive)
REMARK    1  A    between atoms: C1_1  and  O1_2
REMARK    2  A    between atoms: O1_2  and  C2_3
REMARK    3  A    between atoms: C4_5  and  N1_6
REMARK    4  A    between atoms: N1_6  and  C5_7
REMARK    5  A    between atoms: C5_7  and  N2_9
REMARK    6  A    between atoms: N2_9  and  N3_10
REMARK    7  A    between atoms: C6_11  and  C7_13
REMARK    8  A    between atoms: C17_24  and  C18_25
REMARK    9  A    between atoms: C25_33  and  O3_34
REMARK   10  A    between atoms: O3_34  and  C26_35
REMARK                            x       y       z     vdW  Elec       q    Type
REMARK                         _______ _______ _______ _____ _____    ______ ____
ROOT
ATOM      1  N3  UNL     1      29.218 -10.528 -39.683  0.00  0.00    +0.000 N 
ATOM      2  C6  UNL     1      27.991 -10.456 -38.939  0.00  0.00    +0.000 C 
ATOM      3  O2  UNL     1      26.900 -10.737 -39.506  0.00  0.00    +0.000 OA
ATOM      4  H7  UNL     1      30.101 -10.200 -39.232  0.00  0.00    +0.000 HD
ENDROOT
BRANCH   2   5
ATOM      5  C7  UNL     1      27.995 -10.051 -37.516  0.00  0.00    +0.000 A 
ATOM      6  C8  UNL     1      29.196 -10.027 -36.776  0.00  0.00    +0.000 A 
ATOM      7  C9  UNL     1      29.121  -9.610 -35.453  0.00  0.00    +0.000 A 
ATOM      8  C10 UNL     1      27.929  -9.239 -34.868  0.00  0.00    +0.000 A 
ATOM      9  N4  UNL     1      28.118  -8.808 -33.597  0.00  0.00    +0.000 N 
ATOM     10  C11 UNL     1      29.446  -8.935 -33.383  0.00  0.00    +0.000 A 
ATOM     11  C12 UNL     1      30.148  -8.613 -32.221  0.00  0.00    +0.000 A 
ATOM     12  C13 UNL     1      31.540  -8.813 -32.215  0.00  0.00    +0.000 A 
ATOM     13  C14 UNL     1      32.198  -9.315 -33.359  0.00  0.00    +0.000 A 
ATOM     14  C15 UNL     1      31.472  -9.625 -34.523  0.00  0.00    +0.000 A 
ATOM     15  C16 UNL     1      30.094  -9.425 -34.498  0.00  0.00    +0.000 A 
ATOM     16  C17 UNL     1      26.738  -9.286 -35.606  0.00  0.00    +0.000 A 
ATOM     17  N5  UNL     1      26.818  -9.682 -36.913  0.00  0.00    +0.000 NA
ATOM     18  H9  UNL     1      27.412  -8.424 -32.931  0.00  0.00    +0.000 HD
BRANCH  16  19
ATOM     19  C18 UNL     1      25.422  -8.925 -35.039  0.00  0.00    +0.000 A 
ATOM     20  C19 UNL     1      25.039  -9.368 -33.760  0.00  0.00    +0.000 A 
ATOM     21  C20 UNL     1      23.776  -9.043 -33.251  0.00  0.00    +0.000 A 
ATOM     22  C21 UNL     1      22.885  -8.289 -34.013  0.00  0.00    +0.000 A 
ATOM     23  C22 UNL     1      23.248  -7.865 -35.294  0.00  0.00    +0.000 A 
ATOM     24  C23 UNL     1      24.508  -8.188 -35.810  0.00  0.00    +0.000 A 
ENDBRANCH  16  19
ENDBRANCH   2   5
BRANCH   1  25
ATOM     25  N2  UNL     1      29.247 -11.057 -40.988  0.00  0.00    +0.000 N 
ATOM     26  H6  UNL     1      28.836 -12.000 -41.169  0.00  0.00    +0.000 HD
BRANCH  25  27
ATOM     27  C5  UNL     1      29.839 -10.365 -42.098  0.00  0.00    +0.000 C 
ATOM     28  S1  UNL     1      30.883 -11.134 -43.115  0.00  0.00    +0.000 S 
BRANCH  27  29
ATOM     29  N1  UNL     1      29.423  -9.019 -42.376  0.00  0.00    +0.000 N 
ATOM     30  H5  UNL     1      30.044  -8.244 -42.051  0.00  0.00    +0.000 HD
BRANCH  29  33
ATOM     31  C2  UNL     1      25.788  -8.911 -43.253  0.00  0.00    +0.000 A 
ATOM     32  C3  UNL     1      26.998  -9.257 -42.643  0.00  0.00    +0.000 A 
ATOM     33  C4  UNL     1      28.202  -8.669 -43.050  0.00  0.00    +0.000 A 
ATOM     34  C24 UNL     1      28.183  -7.693 -44.060  0.00  0.00    +0.000 A 
ATOM     35  C25 UNL     1      26.982  -7.322 -44.676  0.00  0.00    +0.000 A 
ATOM     36  C27 UNL     1      25.783  -7.941 -44.275  0.00  0.00    +0.000 A 
BRANCH  31  38
ATOM     37  C1  UNL     1      23.417  -8.873 -42.461  0.00  0.00    +0.000 C 
ATOM     38  O1  UNL     1      24.618  -9.550 -42.817  0.00  0.00    +0.000 OA
ENDBRANCH  31  38
BRANCH  35  39
ATOM     39  O3  UNL     1      27.022  -6.333 -45.671  0.00  0.00    +0.000 OA
ATOM     40  C26 UNL     1      27.690  -6.472 -46.922  0.00  0.00    +0.000 C 
ENDBRANCH  35  39
ENDBRANCH  29  33
ENDBRANCH  27  29
ENDBRANCH  25  27
ENDBRANCH   1  25
TORSDOF 8
ENDMDL
MODEL 3
REMARK VINA RESULT:    -7.252      3.796      7.079
REMARK INTER + INTRA:         -11.790
REMARK INTER:                 -10.421
REMARK INTRA:                  -1.369
REMARK UNBOUND:                -1.147
REMARK  Name = resultss/4CJN/ligands/lig_440_t0.pdb
REMARK  10 active torsions:
REMARK  status: ('A' for Active; 'I' for Inactive)
REMARK    1  A    between atoms: C1_1  and  O1_2
REMARK    2  A    between atoms: O1_2  and  C2_3
REMARK    3  A    between atoms: C4_5  and  N1_6
REMARK    4  A    between atoms: N1_6  and  C5_7
REMARK    5  A    between atoms: C5_7  and  N2_9
REMARK    6  A    between atoms: N2_9  and  N3_10
REMARK    7  A    between atoms: C6_11  and  C7_13
REMARK    8  A    between atoms: C17_24  and  C18_25
REMARK    9  A    between atoms: C25_33  and  O3_34
REMARK   10  A    between atoms: O3_34  and  C26_35
REMARK                            x       y       z     vdW  Elec       q    Type
REMARK                         _______ _______ _______ _____ _____    ______ ____
ROOT
ATOM      1  N3  UNL     1      29.156 -10.650 -39.828  0.00  0.00    +0.000 N 
ATOM      2  C6  UNL     1      27.927 -10.474 -39.106  0.00  0.00    +0.000 C 
ATOM      3  O2  UNL     1      26.826 -10.653 -39.695  0.00  0.00    +0.000 OA
ATOM      4  H7  UNL     1      30.056 -10.405 -39.359  0.00  0.00    +0.000 HD
ENDROOT
BRANCH   2   5
ATOM      5  C7  UNL     1      27.940 -10.081 -37.680  0.00  0.00    +0.000 A 
ATOM      6  C8  UNL     1      29.147 -10.054 -36.950  0.00  0.00    +0.000 A 
ATOM      7  C9  UNL     1      29.080  -9.649 -35.623  0.00  0.00    +0.000 A 
ATOM      8  C10 UNL     1      27.891  -9.290 -35.025  0.00  0.00    +0.000 A 
ATOM      9  N4  UNL     1      28.088  -8.868 -33.753  0.00  0.00    +0.000 N 
ATOM     10  C11 UNL     1      29.419  -8.987 -33.551  0.00  0.00    +0.000 A 
ATOM     11  C12 UNL     1      30.128  -8.670 -32.392  0.00  0.00    +0.000 A 
ATOM     12  C13 UNL     1      31.521  -8.860 -32.399  0.00  0.00    +0.000 A 
ATOM     13  C14 UNL     1      32.173  -9.349 -33.553  0.00  0.00    +0.000 A 
ATOM     14  C15 UNL     1      31.439  -9.654 -34.714  0.00  0.00    +0.000 A 
ATOM     15  C16 UNL     1      30.060  -9.464 -34.675  0.00  0.00    +0.000 A 
ATOM     16  C17 UNL     1      26.694  -9.339 -35.753  0.00  0.00    +0.000 A 
ATOM     17  N5  UNL     1      26.766  -9.725 -37.064  0.00  0.00    +0.000 NA
ATOM     18  H9  UNL     1      27.385  -8.495 -33.077  0.00  0.00    +0.000 HD
BRANCH  16  19
ATOM     19  C18 UNL     1      25.381  -8.993 -35.172  0.00  0.00    +0.000 A 
ATOM     20  C19 UNL     1      24.461  -8.198 -35.880  0.00  0.00    +0.000 A 
ATOM     21  C20 UNL     1      23.235  -7.853 -35.301  0.00  0.00    +0.000 A 
ATOM     22  C21 UNL     1      22.920  -8.286 -34.013  0.00  0.00    +0.000 A 
ATOM     23  C22 UNL     1      23.837  -9.056 -33.293  0.00  0.00    +0.000 A 
ATOM     24  C23 UNL     1      25.066  -9.403 -33.865  0.00  0.00    +0.000 A 
ENDBRANCH  16  19
ENDBRANCH   2   5
BRANCH   1  25
ATOM     25  N2  UNL     1      29.162 -11.170 -41.137  0.00  0.00    +0.000 N 
ATOM     26  H6  UNL     1      28.662 -12.066 -41.336  0.00  0.00    +0.000 HD
BRANCH  25  27
ATOM     27  C5  UNL     1      29.849 -10.536 -42.227  0.00  0.00    +0.000 C 
ATOM     28  S1  UNL     1      31.266 -11.146 -42.804  0.00  0.00    +0.000 S 
BRANCH  27  29
ATOM     29  N1  UNL     1      29.225  -9.420 -42.882  0.00  0.00    +0.000 N 
ATOM     30  H5  UNL     1      29.697  -9.033 -43.730  0.00  0.00    +0.000 HD
BRANCH  29  33
ATOM     31  C2  UNL     1      25.579  -8.693 -42.461  0.00  0.00    +0.000 A 
ATOM     32  C3  UNL     1      26.779  -9.260 -42.905  0.00  0.00    +0.000 A 
ATOM     33  C4  UNL     1      28.012  -8.790 -42.435  0.00  0.00    +0.000 A 
ATOM     34  C24 UNL     1      28.037  -7.761 -41.480  0.00  0.00    +0.000 A 
ATOM     35  C25 UNL     1      26.848  -7.187 -41.013  0.00  0.00    +0.000 A 
ATOM     36  C27 UNL     1      25.617  -7.652 -41.514  0.00  0.00    +0.000 A 
BRANCH  31  38
ATOM     37  C1  UNL     1      23.084  -8.734 -42.604  0.00  0.00    +0.000 C 
ATOM     38  O1  UNL     1      24.377  -9.191 -42.985  0.00  0.00    +0.000 OA
ENDBRANCH  31  38
BRANCH  35  39
ATOM     39  O3  UNL     1      26.933  -6.171 -40.050  0.00  0.00    +0.000 OA
ATOM     40  C26 UNL     1      27.042  -6.395 -38.647  0.00  0.00    +0.000 C 
ENDBRANCH  35  39
ENDBRANCH  29  33
ENDBRANCH  27  29
ENDBRANCH  25  27
ENDBRANCH   1  25
TORSDOF 8
ENDMDL
MODEL 4
REMARK VINA RESULT:    -7.193      3.686      6.776
REMARK INTER + INTRA:         -11.703
REMARK INTER:                 -10.356
REMARK INTRA:                  -1.347
REMARK UNBOUND:                -1.147
REMARK  Name = resultss/4CJN/ligands/lig_440_t0.pdb
REMARK  10 active torsions:
REMARK  status: ('A' for Active; 'I' for Inactive)
REMARK    1  A    between atoms: C1_1  and  O1_2
REMARK    2  A    between atoms: O1_2  and  C2_3
REMARK    3  A    between atoms: C4_5  and  N1_6
REMARK    4  A    between atoms: N1_6  and  C5_7
REMARK    5  A    between atoms: C5_7  and  N2_9
REMARK    6  A    between atoms: N2_9  and  N3_10
REMARK    7  A    between atoms: C6_11  and  C7_13
REMARK    8  A    between atoms: C17_24  and  C18_25
REMARK    9  A    between atoms: C25_33  and  O3_34
REMARK   10  A    between atoms: O3_34  and  C26_35
REMARK                            x       y       z     vdW  Elec       q    Type
REMARK                         _______ _______ _______ _____ _____    ______ ____
ROOT
ATOM      1  N3  UNL     1      28.968 -10.708 -39.734  0.00  0.00    +0.000 N 
ATOM      2  C6  UNL     1      27.755 -10.431 -39.017  0.00  0.00    +0.000 C 
ATOM      3  O2  UNL     1      26.645 -10.517 -39.610  0.00  0.00    +0.000 OA
ATOM      4  H7  UNL     1      29.883 -10.540 -39.260  0.00  0.00    +0.000 HD
ENDROOT
BRANCH   2   5
ATOM      5  C7  UNL     1      27.794 -10.043 -37.589  0.00  0.00    +0.000 A 
ATOM      6  C8  UNL     1      29.012 -10.037 -36.877  0.00  0.00    +0.000 A 
ATOM      7  C9  UNL     1      28.971  -9.635 -35.548  0.00  0.00    +0.000 A 
ATOM      8  C10 UNL     1      27.796  -9.261 -34.931  0.00  0.00    +0.000 A 
ATOM      9  N4  UNL     1      28.018  -8.846 -33.661  0.00  0.00    +0.000 N 
ATOM     10  C11 UNL     1      29.349  -8.986 -33.479  0.00  0.00    +0.000 A 
ATOM     11  C12 UNL     1      30.080  -8.683 -32.330  0.00  0.00    +0.000 A 
ATOM     12  C13 UNL     1      31.470  -8.894 -32.357  0.00  0.00    +0.000 A 
ATOM     13  C14 UNL     1      32.098  -9.389 -33.522  0.00  0.00    +0.000 A 
ATOM     14  C15 UNL     1      31.342  -9.680 -34.673  0.00  0.00    +0.000 A 
ATOM     15  C16 UNL     1      29.967  -9.469 -34.614  0.00  0.00    +0.000 A 
ATOM     16  C17 UNL     1      26.588  -9.289 -35.643  0.00  0.00    +0.000 A 
ATOM     17  N5  UNL     1      26.635  -9.671 -36.955  0.00  0.00    +0.000 NA
ATOM     18  H9  UNL     1      27.331  -8.464 -32.974  0.00  0.00    +0.000 HD
BRANCH  16  19
ATOM     19  C18 UNL     1      25.289  -8.925 -35.041  0.00  0.00    +0.000 A 
ATOM     20  C19 UNL     1      24.939  -9.363 -33.751  0.00  0.00    +0.000 A 
ATOM     21  C20 UNL     1      23.691  -9.035 -33.209  0.00  0.00    +0.000 A 
ATOM     22  C21 UNL     1      22.781  -8.280 -33.950  0.00  0.00    +0.000 A 
ATOM     23  C22 UNL     1      23.110  -7.861 -35.241  0.00  0.00    +0.000 A 
ATOM     24  C23 UNL     1      24.356  -8.187 -35.789  0.00  0.00    +0.000 A 
ENDBRANCH  16  19
ENDBRANCH   2   5
BRANCH   1  25
ATOM     25  N2  UNL     1      28.936 -11.225 -41.044  0.00  0.00    +0.000 N 
ATOM     26  H6  UNL     1      28.478 -12.147 -41.221  0.00  0.00    +0.000 HD
BRANCH  25  27
ATOM     27  C5  UNL     1      29.529 -10.551 -42.164  0.00  0.00    +0.000 C 
ATOM     28  S1  UNL     1      31.085 -10.858 -42.610  0.00  0.00    +0.000 S 
BRANCH  27  29
ATOM     29  N1  UNL     1      28.709  -9.681 -42.961  0.00  0.00    +0.000 N 
ATOM     30  H5  UNL     1      28.975  -9.552 -43.964  0.00  0.00    +0.000 HD
BRANCH  29  33
ATOM     31  C2  UNL     1      26.667  -7.115 -41.163  0.00  0.00    +0.000 A 
ATOM     32  C3  UNL     1      27.757  -7.856 -41.632  0.00  0.00    +0.000 A 
ATOM     33  C4  UNL     1      27.566  -8.964 -42.467  0.00  0.00    +0.000 A 
ATOM     34  C24 UNL     1      26.264  -9.310 -42.863  0.00  0.00    +0.000 A 
ATOM     35  C25 UNL     1      25.159  -8.575 -42.416  0.00  0.00    +0.000 A 
ATOM     36  C27 UNL     1      25.364  -7.479 -41.556  0.00  0.00    +0.000 A 
BRANCH  31  38
ATOM     37  C1  UNL     1      27.775  -6.080 -39.176  0.00  0.00    +0.000 C 
ATOM     38  O1  UNL     1      26.920  -6.028 -40.313  0.00  0.00    +0.000 OA
ENDBRANCH  31  38
BRANCH  35  39
ATOM     39  O3  UNL     1      23.883  -8.959 -42.855  0.00  0.00    +0.000 OA
ATOM     40  C26 UNL     1      22.723  -8.135 -42.784  0.00  0.00    +0.000 C 
ENDBRANCH  35  39
ENDBRANCH  29  33
ENDBRANCH  27  29
ENDBRANCH  25  27
ENDBRANCH   1  25
TORSDOF 8
ENDMDL
MODEL 5
REMARK VINA RESULT:    -6.921      4.160      7.400
REMARK INTER + INTRA:         -11.304
REMARK INTER:                  -9.646
REMARK INTRA:                  -1.658
REMARK UNBOUND:                -1.147
REMARK  Name = resultss/4CJN/ligands/lig_440_t0.pdb
REMARK  10 active torsions:
REMARK  status: ('A' for Active; 'I' for Inactive)
REMARK    1  A    between atoms: C1_1  and  O1_2
REMARK    2  A    between atoms: O1_2  and  C2_3
REMARK    3  A    between atoms: C4_5  and  N1_6
REMARK    4  A    between atoms: N1_6  and  C5_7
REMARK    5  A    between atoms: C5_7  and  N2_9
REMARK    6  A    between atoms: N2_9  and  N3_10
REMARK    7  A    between atoms: C6_11  and  C7_13
REMARK    8  A    between atoms: C17_24  and  C18_25
REMARK    9  A    between atoms: C25_33  and  O3_34
REMARK   10  A    between atoms: O3_34  and  C26_35
REMARK                            x       y       z     vdW  Elec       q    Type
REMARK                         _______ _______ _______ _____ _____    ______ ____
ROOT
ATOM      1  N3  UNL     1      30.324 -10.241 -38.099  0.00  0.00    +0.000 N 
ATOM      2  C6  UNL     1      29.576  -9.789 -36.959  0.00  0.00    +0.000 C 
ATOM      3  O2  UNL     1      30.137  -9.717 -35.832  0.00  0.00    +0.000 OA
ATOM      4  H7  UNL     1      29.825 -10.388 -39.003  0.00  0.00    +0.000 HD
ENDROOT
BRANCH   2   5
ATOM      5  C7  UNL     1      28.152  -9.411 -37.094  0.00  0.00    +0.000 A 
ATOM      6  C8  UNL     1      27.350  -9.204 -35.951  0.00  0.00    +0.000 A 
ATOM      7  C9  UNL     1      26.029  -8.825 -36.160  0.00  0.00    +0.000 A 
ATOM      8  C10 UNL     1      25.505  -8.661 -37.425  0.00  0.00    +0.000 A 
ATOM      9  N4  UNL     1      24.224  -8.225 -37.374  0.00  0.00    +0.000 N 
ATOM     10  C11 UNL     1      23.941  -8.137 -36.055  0.00  0.00    +0.000 A 
ATOM     11  C12 UNL     1      22.741  -7.724 -35.475  0.00  0.00    +0.000 A 
ATOM     12  C13 UNL     1      22.663  -7.695 -34.071  0.00  0.00    +0.000 A 
ATOM     13  C14 UNL     1      23.774  -8.066 -33.283  0.00  0.00    +0.000 A 
ATOM     14  C15 UNL     1      24.977  -8.472 -33.889  0.00  0.00    +0.000 A 
ATOM     15  C16 UNL     1      25.023  -8.499 -35.280  0.00  0.00    +0.000 A 
ATOM     16  C17 UNL     1      26.305  -8.889 -38.553  0.00  0.00    +0.000 A 
ATOM     17  N5  UNL     1      27.609  -9.247 -38.343  0.00  0.00    +0.000 NA
ATOM     18  H9  UNL     1      23.593  -7.971 -38.165  0.00  0.00    +0.000 HD
BRANCH  16  19
ATOM     19  C18 UNL     1      25.805  -8.756 -39.938  0.00  0.00    +0.000 A 
ATOM     20  C19 UNL     1      25.876  -9.832 -40.840  0.00  0.00    +0.000 A 
ATOM     21  C20 UNL     1      25.427  -9.679 -42.157  0.00  0.00    +0.000 A 
ATOM     22  C21 UNL     1      24.917  -8.454 -42.586  0.00  0.00    +0.000 A 
ATOM     23  C22 UNL     1      24.865  -7.372 -41.703  0.00  0.00    +0.000 A 
ATOM     24  C23 UNL     1      25.314  -7.518 -40.386  0.00  0.00    +0.000 A 
ENDBRANCH  16  19
ENDBRANCH   2   5
BRANCH   1  25
ATOM     25  N2  UNL     1      31.714 -10.457 -38.016  0.00  0.00    +0.000 N 
ATOM     26  H6  UNL     1      32.084 -11.175 -37.354  0.00  0.00    +0.000 HD
BRANCH  25  27
ATOM     27  C5  UNL     1      32.667  -9.714 -38.791  0.00  0.00    +0.000 C 
ATOM     28  S1  UNL     1      34.281 -10.016 -38.664  0.00  0.00    +0.000 S 
BRANCH  27  29
ATOM     29  N1  UNL     1      32.184  -8.773 -39.764  0.00  0.00    +0.000 N 
ATOM     30  H5  UNL     1      32.512  -7.784 -39.683  0.00  0.00    +0.000 HD
BRANCH  29  33
ATOM     31  C2  UNL     1      29.336  -8.483 -42.172  0.00  0.00    +0.000 A 
ATOM     32  C3  UNL     1      30.223  -8.213 -41.124  0.00  0.00    +0.000 A 
ATOM     33  C4  UNL     1      31.267  -9.097 -40.822  0.00  0.00    +0.000 A 
ATOM     34  C24 UNL     1      31.442 -10.249 -41.607  0.00  0.00    +0.000 A 
ATOM     35  C25 UNL     1      30.573 -10.532 -42.668  0.00  0.00    +0.000 A 
ATOM     36  C27 UNL     1      29.513  -9.648 -42.944  0.00  0.00    +0.000 A 
BRANCH  31  38
ATOM     37  C1  UNL     1      28.205  -6.746 -43.568  0.00  0.00    +0.000 C 
ATOM     38  O1  UNL     1      28.298  -7.571 -42.412  0.00  0.00    +0.000 OA
ENDBRANCH  31  38
BRANCH  35  39
ATOM     39  O3  UNL     1      30.804 -11.690 -43.426  0.00  0.00    +0.000 OA
ATOM     40  C26 UNL     1      31.953 -12.522 -43.300  0.00  0.00    +0.000 C 
ENDBRANCH  35  39
ENDBRANCH  29  33
ENDBRANCH  27  29
ENDBRANCH  25  27
ENDBRANCH   1  25
TORSDOF 8
ENDMDL
MODEL 6
REMARK VINA RESULT:    -6.889      4.153      7.537
REMARK INTER + INTRA:         -11.257
REMARK INTER:                  -9.936
REMARK INTRA:                  -1.321
REMARK UNBOUND:                -1.147
REMARK  Name = resultss/4CJN/ligands/lig_440_t0.pdb
REMARK  10 active torsions:
REMARK  status: ('A' for Active; 'I' for Inactive)
REMARK    1  A    between atoms: C1_1  and  O1_2
REMARK    2  A    between atoms: O1_2  and  C2_3
REMARK    3  A    between atoms: C4_5  and  N1_6
REMARK    4  A    between atoms: N1_6  and  C5_7
REMARK    5  A    between atoms: C5_7  and  N2_9
REMARK    6  A    between atoms: N2_9  and  N3_10
REMARK    7  A    between atoms: C6_11  and  C7_13
REMARK    8  A    between atoms: C17_24  and  C18_25
REMARK    9  A    between atoms: C25_33  and  O3_34
REMARK   10  A    between atoms: O3_34  and  C26_35
REMARK                            x       y       z     vdW  Elec       q    Type
REMARK                         _______ _______ _______ _____ _____    ______ ____
ROOT
ATOM      1  N3  UNL     1      30.314 -10.199 -38.252  0.00  0.00    +0.000 N 
ATOM      2  C6  UNL     1      29.604  -9.716 -37.100  0.00  0.00    +0.000 C 
ATOM      3  O2  UNL     1      30.207  -9.598 -35.998  0.00  0.00    +0.000 OA
ATOM      4  H7  UNL     1      29.783 -10.383 -39.131  0.00  0.00    +0.000 HD
ENDROOT
BRANCH   2   5
ATOM      5  C7  UNL     1      28.171  -9.359 -37.192  0.00  0.00    +0.000 A 
ATOM      6  C8  UNL     1      27.397  -9.176 -36.027  0.00  0.00    +0.000 A 
ATOM      7  C9  UNL     1      26.065  -8.817 -36.196  0.00  0.00    +0.000 A 
ATOM      8  C10 UNL     1      25.505  -8.649 -37.445  0.00  0.00    +0.000 A 
ATOM      9  N4  UNL     1      24.219  -8.233 -37.354  0.00  0.00    +0.000 N 
ATOM     10  C11 UNL     1      23.970  -8.163 -36.028  0.00  0.00    +0.000 A 
ATOM     11  C12 UNL     1      22.781  -7.775 -35.412  0.00  0.00    +0.000 A 
ATOM     12  C13 UNL     1      22.740  -7.761 -34.006  0.00  0.00    +0.000 A 
ATOM     13  C14 UNL     1      23.878  -8.123 -33.251  0.00  0.00    +0.000 A 
ATOM     14  C15 UNL     1      25.070  -8.504 -33.894  0.00  0.00    +0.000 A 
ATOM     15  C16 UNL     1      25.079  -8.516 -35.286  0.00  0.00    +0.000 A 
ATOM     16  C17 UNL     1      26.278  -8.853 -38.596  0.00  0.00    +0.000 A 
ATOM     17  N5  UNL     1      27.592  -9.192 -38.425  0.00  0.00    +0.000 NA
ATOM     18  H9  UNL     1      23.562  -7.982 -38.126  0.00  0.00    +0.000 HD
BRANCH  16  19
ATOM     19  C18 UNL     1      25.739  -8.714 -39.965  0.00  0.00    +0.000 A 
ATOM     20  C19 UNL     1      25.493  -9.844 -40.766  0.00  0.00    +0.000 A 
ATOM     21  C20 UNL     1      25.012  -9.693 -42.071  0.00  0.00    +0.000 A 
ATOM     22  C21 UNL     1      24.784  -8.419 -42.591  0.00  0.00    +0.000 A 
ATOM     23  C22 UNL     1      25.047  -7.289 -41.812  0.00  0.00    +0.000 A 
ATOM     24  C23 UNL     1      25.530  -7.434 -40.507  0.00  0.00    +0.000 A 
ENDBRANCH  16  19
ENDBRANCH   2   5
BRANCH   1  25
ATOM     25  N2  UNL     1      31.708 -10.395 -38.215  0.00  0.00    +0.000 N 
ATOM     26  H6  UNL     1      32.102 -11.184 -37.654  0.00  0.00    +0.000 HD
BRANCH  25  27
ATOM     27  C5  UNL     1      32.635  -9.542 -38.903  0.00  0.00    +0.000 C 
ATOM     28  S1  UNL     1      33.053  -8.073 -38.285  0.00  0.00    +0.000 S 
BRANCH  27  29
ATOM     29  N1  UNL     1      33.281 -10.034 -40.088  0.00  0.00    +0.000 N 
ATOM     30  H5  UNL     1      34.303 -10.245 -40.029  0.00  0.00    +0.000 HD
BRANCH  29  33
ATOM     31  C2  UNL     1      32.717 -11.011 -43.655  0.00  0.00    +0.000 A 
ATOM     32  C3  UNL     1      33.340 -10.770 -42.426  0.00  0.00    +0.000 A 
ATOM     33  C4  UNL     1      32.621 -10.235 -41.349  0.00  0.00    +0.000 A 
ATOM     34  C24 UNL     1      31.250  -9.972 -41.502  0.00  0.00    +0.000 A 
ATOM     35  C25 UNL     1      30.603 -10.217 -42.719  0.00  0.00    +0.000 A 
ATOM     36  C27 UNL     1      31.344 -10.730 -43.800  0.00  0.00    +0.000 A 
BRANCH  31  38
ATOM     37  C1  UNL     1      33.623 -10.920 -45.983  0.00  0.00    +0.000 C 
ATOM     38  O1  UNL     1      33.494 -11.528 -44.702  0.00  0.00    +0.000 OA
ENDBRANCH  31  38
BRANCH  35  39
ATOM     39  O3  UNL     1      29.229  -9.947 -42.809  0.00  0.00    +0.000 OA
ATOM     40  C26 UNL     1      28.630  -8.692 -42.497  0.00  0.00    +0.000 C 
ENDBRANCH  35  39
ENDBRANCH  29  33
ENDBRANCH  27  29
ENDBRANCH  25  27
ENDBRANCH   1  25
TORSDOF 8
ENDMDL
MODEL 7
REMARK VINA RESULT:    -6.886      4.111      9.148
REMARK INTER + INTRA:         -11.254
REMARK INTER:                  -9.636
REMARK INTRA:                  -1.617
REMARK UNBOUND:                -1.147
REMARK  Name = resultss/4CJN/ligands/lig_440_t0.pdb
REMARK  10 active torsions:
REMARK  status: ('A' for Active; 'I' for Inactive)
REMARK    1  A    between atoms: C1_1  and  O1_2
REMARK    2  A    between atoms: O1_2  and  C2_3
REMARK    3  A    between atoms: C4_5  and  N1_6
REMARK    4  A    between atoms: N1_6  and  C5_7
REMARK    5  A    between atoms: C5_7  and  N2_9
REMARK    6  A    between atoms: N2_9  and  N3_10
REMARK    7  A    between atoms: C6_11  and  C7_13
REMARK    8  A    between atoms: C17_24  and  C18_25
REMARK    9  A    between atoms: C25_33  and  O3_34
REMARK   10  A    between atoms: O3_34  and  C26_35
REMARK                            x       y       z     vdW  Elec       q    Type
REMARK                         _______ _______ _______ _____ _____    ______ ____
ROOT
ATOM      1  N3  UNL     1      26.477  -8.965 -37.889  0.00  0.00    +0.000 N 
ATOM      2  C6  UNL     1      27.301  -9.921 -38.574  0.00  0.00    +0.000 C 
ATOM      3  O2  UNL     1      27.631 -10.991 -37.994  0.00  0.00    +0.000 OA
ATOM      4  H7  UNL     1      26.291  -8.043 -38.341  0.00  0.00    +0.000 HD
ENDROOT
BRANCH   2   5
ATOM      5  C7  UNL     1      27.769  -9.661 -39.954  0.00  0.00    +0.000 A 
ATOM      6  C8  UNL     1      27.042  -8.812 -40.814  0.00  0.00    +0.000 A 
ATOM      7  C9  UNL     1      27.560  -8.596 -42.085  0.00  0.00    +0.000 A 
ATOM      8  C10 UNL     1      28.733  -9.187 -42.508  0.00  0.00    +0.000 A 
ATOM      9  N4  UNL     1      29.069  -8.774 -43.754  0.00  0.00    +0.000 N 
ATOM     10  C11 UNL     1      28.078  -7.930 -44.118  0.00  0.00    +0.000 A 
ATOM     11  C12 UNL     1      27.965  -7.232 -45.320  0.00  0.00    +0.000 A 
ATOM     12  C13 UNL     1      26.851  -6.390 -45.491  0.00  0.00    +0.000 A 
ATOM     13  C14 UNL     1      25.888  -6.258 -44.467  0.00  0.00    +0.000 A 
ATOM     14  C15 UNL     1      26.026  -6.967 -43.259  0.00  0.00    +0.000 A 
ATOM     15  C16 UNL     1      27.134  -7.798 -43.121  0.00  0.00    +0.000 A 
ATOM     16  C17 UNL     1      29.436 -10.045 -41.652  0.00  0.00    +0.000 A 
ATOM     17  N5  UNL     1      28.931 -10.243 -40.396  0.00  0.00    +0.000 NA
ATOM     18  H9  UNL     1      29.920  -9.015 -44.309  0.00  0.00    +0.000 HD
BRANCH  16  19
ATOM     19  C18 UNL     1      30.685 -10.731 -42.046  0.00  0.00    +0.000 A 
ATOM     20  C19 UNL     1      31.941 -10.152 -41.789  0.00  0.00    +0.000 A 
ATOM     21  C20 UNL     1      33.113 -10.801 -42.196  0.00  0.00    +0.000 A 
ATOM     22  C21 UNL     1      33.041 -12.020 -42.870  0.00  0.00    +0.000 A 
ATOM     23  C22 UNL     1      31.798 -12.590 -43.151  0.00  0.00    +0.000 A 
ATOM     24  C23 UNL     1      30.623 -11.946 -42.748  0.00  0.00    +0.000 A 
ENDBRANCH  16  19
ENDBRANCH   2   5
BRANCH   1  25
ATOM     25  N2  UNL     1      25.901  -9.266 -36.639  0.00  0.00    +0.000 N 
ATOM     26  H6  UNL     1      24.937  -9.667 -36.601  0.00  0.00    +0.000 HD
BRANCH  25  27
ATOM     27  C5  UNL     1      26.571  -9.028 -35.392  0.00  0.00    +0.000 C 
ATOM     28  S1  UNL     1      26.191  -7.723 -34.462  0.00  0.00    +0.000 S 
BRANCH  27  29
ATOM     29  N1  UNL     1      27.506 -10.008 -34.911  0.00  0.00    +0.000 N 
ATOM     30  H5  UNL     1      27.127 -10.942 -34.637  0.00  0.00    +0.000 HD
BRANCH  29  33
ATOM     31  C2  UNL     1      30.888  -9.757 -33.333  0.00  0.00    +0.000 A 
ATOM     32  C3  UNL     1      29.511  -9.937 -33.503  0.00  0.00    +0.000 A 
ATOM     33  C4  UNL     1      28.917  -9.779 -34.762  0.00  0.00    +0.000 A 
ATOM     34  C24 UNL     1      29.724  -9.472 -35.870  0.00  0.00    +0.000 A 
ATOM     35  C25 UNL     1      31.106  -9.300 -35.724  0.00  0.00    +0.000 A 
ATOM     36  C27 UNL     1      31.686  -9.436 -34.449  0.00  0.00    +0.000 A 
BRANCH  31  38
ATOM     37  C1  UNL     1      32.105 -11.070 -31.589  0.00  0.00    +0.000 C 
ATOM     38  O1  UNL     1      31.422  -9.907 -32.045  0.00  0.00    +0.000 OA
ENDBRANCH  31  38
BRANCH  35  39
ATOM     39  O3  UNL     1      31.864  -9.006 -36.868  0.00  0.00    +0.000 OA
ATOM     40  C26 UNL     1      31.872  -9.793 -38.056  0.00  0.00    +0.000 C 
ENDBRANCH  35  39
ENDBRANCH  29  33
ENDBRANCH  27  29
ENDBRANCH  25  27
ENDBRANCH   1  25
TORSDOF 8
ENDMDL
MODEL 8
REMARK VINA RESULT:    -6.876      4.078      7.423
REMARK INTER + INTRA:         -11.239
REMARK INTER:                  -9.812
REMARK INTRA:                  -1.427
REMARK UNBOUND:                -1.147
REMARK  Name = resultss/4CJN/ligands/lig_440_t0.pdb
REMARK  10 active torsions:
REMARK  status: ('A' for Active; 'I' for Inactive)
REMARK    1  A    between atoms: C1_1  and  O1_2
REMARK    2  A    between atoms: O1_2  and  C2_3
REMARK    3  A    between atoms: C4_5  and  N1_6
REMARK    4  A    between atoms: N1_6  and  C5_7
REMARK    5  A    between atoms: C5_7  and  N2_9
REMARK    6  A    between atoms: N2_9  and  N3_10
REMARK    7  A    between atoms: C6_11  and  C7_13
REMARK    8  A    between atoms: C17_24  and  C18_25
REMARK    9  A    between atoms: C25_33  and  O3_34
REMARK   10  A    between atoms: O3_34  and  C26_35
REMARK                            x       y       z     vdW  Elec       q    Type
REMARK                         _______ _______ _______ _____ _____    ______ ____
ROOT
ATOM      1  N3  UNL     1      26.337  -9.881 -39.908  0.00  0.00    +0.000 N 
ATOM      2  C6  UNL     1      27.438 -10.343 -39.110  0.00  0.00    +0.000 C 
ATOM      3  O2  UNL     1      28.326 -11.071 -39.633  0.00  0.00    +0.000 OA
ATOM      4  H7  UNL     1      25.561  -9.361 -39.444  0.00  0.00    +0.000 HD
ENDROOT
BRANCH   2   5
ATOM      5  C7  UNL     1      27.539  -9.976 -37.680  0.00  0.00    +0.000 A 
ATOM      6  C8  UNL     1      28.787  -9.980 -37.022  0.00  0.00    +0.000 A 
ATOM      7  C9  UNL     1      28.803  -9.598 -35.686  0.00  0.00    +0.000 A 
ATOM      8  C10 UNL     1      27.655  -9.235 -35.013  0.00  0.00    +0.000 A 
ATOM      9  N4  UNL     1      27.931  -8.840 -33.747  0.00  0.00    +0.000 N 
ATOM     10  C11 UNL     1      29.270  -8.980 -33.625  0.00  0.00    +0.000 A 
ATOM     11  C12 UNL     1      30.049  -8.694 -32.504  0.00  0.00    +0.000 A 
ATOM     12  C13 UNL     1      31.438  -8.902 -32.595  0.00  0.00    +0.000 A 
ATOM     13  C14 UNL     1      32.014  -9.378 -33.793  0.00  0.00    +0.000 A 
ATOM     14  C15 UNL     1      31.210  -9.653 -34.915  0.00  0.00    +0.000 A 
ATOM     15  C16 UNL     1      29.839  -9.445 -34.793  0.00  0.00    +0.000 A 
ATOM     16  C17 UNL     1      26.418  -9.255 -35.672  0.00  0.00    +0.000 A 
ATOM     17  N5  UNL     1      26.408  -9.616 -36.991  0.00  0.00    +0.000 NA
ATOM     18  H9  UNL     1      27.275  -8.469 -33.026  0.00  0.00    +0.000 HD
BRANCH  16  19
ATOM     19  C18 UNL     1      25.145  -8.901 -35.009  0.00  0.00    +0.000 A 
ATOM     20  C19 UNL     1      24.182  -8.111 -35.663  0.00  0.00    +0.000 A 
ATOM     21  C20 UNL     1      22.996  -7.760 -35.009  0.00  0.00    +0.000 A 
ATOM     22  C21 UNL     1      22.767  -8.181 -33.699  0.00  0.00    +0.000 A 
ATOM     23  C22 UNL     1      23.728  -8.946 -33.033  0.00  0.00    +0.000 A 
ATOM     24  C23 UNL     1      24.916  -9.299 -33.681  0.00  0.00    +0.000 A 
ENDBRANCH  16  19
ENDBRANCH   2   5
BRANCH   1  25
ATOM     25  N2  UNL     1      26.309 -10.094 -41.301  0.00  0.00    +0.000 N 
ATOM     26  H6  UNL     1      26.169 -11.061 -41.670  0.00  0.00    +0.000 HD
BRANCH  25  27
ATOM     27  C5  UNL     1      26.489  -9.038 -42.256  0.00  0.00    +0.000 C 
ATOM     28  S1  UNL     1      25.356  -7.855 -42.435  0.00  0.00    +0.000 S 
BRANCH  27  29
ATOM     29  N1  UNL     1      27.727  -8.965 -42.982  0.00  0.00    +0.000 N 
ATOM     30  H5  UNL     1      27.674  -8.807 -44.013  0.00  0.00    +0.000 HD
BRANCH  29  33
ATOM     31  C2  UNL     1      30.672  -8.381 -40.749  0.00  0.00    +0.000 A 
ATOM     32  C3  UNL     1      29.428  -8.237 -41.374  0.00  0.00    +0.000 A 
ATOM     33  C4  UNL     1      29.027  -9.117 -42.387  0.00  0.00    +0.000 A 
ATOM     34  C24 UNL     1      29.874 -10.177 -42.752  0.00  0.00    +0.000 A 
ATOM     35  C25 UNL     1      31.117 -10.347 -42.132  0.00  0.00    +0.000 A 
ATOM     36  C27 UNL     1      31.519  -9.439 -41.133  0.00  0.00    +0.000 A 
BRANCH  31  38
ATOM     37  C1  UNL     1      30.163  -7.032 -38.708  0.00  0.00    +0.000 C 
ATOM     38  O1  UNL     1      31.027  -7.456 -39.757  0.00  0.00    +0.000 OA
ENDBRANCH  31  38
BRANCH  35  39
ATOM     39  O3  UNL     1      31.916 -11.431 -42.529  0.00  0.00    +0.000 OA
ATOM     40  C26 UNL     1      31.433 -12.579 -43.220  0.00  0.00    +0.000 C 
ENDBRANCH  35  39
ENDBRANCH  29  33
ENDBRANCH  27  29
ENDBRANCH  25  27
ENDBRANCH   1  25
TORSDOF 8
ENDMDL
MODEL 9
REMARK VINA RESULT:    -6.871      4.179      9.020
REMARK INTER + INTRA:         -11.231
REMARK INTER:                  -9.659
REMARK INTRA:                  -1.573
REMARK UNBOUND:                -1.147
REMARK  Name = resultss/4CJN/ligands/lig_440_t0.pdb
REMARK  10 active torsions:
REMARK  status: ('A' for Active; 'I' for Inactive)
REMARK    1  A    between atoms: C1_1  and  O1_2
REMARK    2  A    between atoms: O1_2  and  C2_3
REMARK    3  A    between atoms: C4_5  and  N1_6
REMARK    4  A    between atoms: N1_6  and  C5_7
REMARK    5  A    between atoms: C5_7  and  N2_9
REMARK    6  A    between atoms: N2_9  and  N3_10
REMARK    7  A    between atoms: C6_11  and  C7_13
REMARK    8  A    between atoms: C17_24  and  C18_25
REMARK    9  A    between atoms: C25_33  and  O3_34
REMARK   10  A    between atoms: O3_34  and  C26_35
REMARK                            x       y       z     vdW  Elec       q    Type
REMARK                         _______ _______ _______ _____ _____    ______ ____
ROOT
ATOM      1  N3  UNL     1      26.330  -9.222 -37.541  0.00  0.00    +0.000 N 
ATOM      2  C6  UNL     1      27.339 -10.005 -38.199  0.00  0.00    +0.000 C 
ATOM      3  O2  UNL     1      27.927 -10.925 -37.567  0.00  0.00    +0.000 OA
ATOM      4  H7  UNL     1      25.921  -8.403 -38.042  0.00  0.00    +0.000 HD
ENDROOT
BRANCH   2   5
ATOM      5  C7  UNL     1      27.699  -9.740 -39.609  0.00  0.00    +0.000 A 
ATOM      6  C8  UNL     1      26.879  -8.928 -40.421  0.00  0.00    +0.000 A 
ATOM      7  C9  UNL     1      27.298  -8.704 -41.728  0.00  0.00    +0.000 A 
ATOM      8  C10 UNL     1      28.461  -9.252 -42.228  0.00  0.00    +0.000 A 
ATOM      9  N4  UNL     1      28.692  -8.838 -43.497  0.00  0.00    +0.000 N 
ATOM     10  C11 UNL     1      27.645  -8.038 -43.797  0.00  0.00    +0.000 A 
ATOM     11  C12 UNL     1      27.420  -7.355 -44.992  0.00  0.00    +0.000 A 
ATOM     12  C13 UNL     1      26.263  -6.560 -45.090  0.00  0.00    +0.000 A 
ATOM     13  C14 UNL     1      25.370  -6.457 -44.001  0.00  0.00    +0.000 A 
ATOM     14  C15 UNL     1      25.621  -7.148 -42.801  0.00  0.00    +0.000 A 
ATOM     15  C16 UNL     1      26.769  -7.933 -42.736  0.00  0.00    +0.000 A 
ATOM     16  C17 UNL     1      29.257 -10.073 -41.419  0.00  0.00    +0.000 A 
ATOM     17  N5  UNL     1      28.849 -10.279 -40.129  0.00  0.00    +0.000 NA
ATOM     18  H9  UNL     1      29.511  -9.050 -44.109  0.00  0.00    +0.000 HD
BRANCH  16  19
ATOM     19  C18 UNL     1      30.502 -10.713 -41.894  0.00  0.00    +0.000 A 
ATOM     20  C19 UNL     1      31.753 -10.103 -41.691  0.00  0.00    +0.000 A 
ATOM     21  C20 UNL     1      32.918 -10.707 -42.176  0.00  0.00    +0.000 A 
ATOM     22  C21 UNL     1      32.846 -11.912 -42.875  0.00  0.00    +0.000 A 
ATOM     23  C22 UNL     1      31.605 -12.513 -43.102  0.00  0.00    +0.000 A 
ATOM     24  C23 UNL     1      30.436 -11.913 -42.621  0.00  0.00    +0.000 A 
ENDBRANCH  16  19
ENDBRANCH   2   5
BRANCH   1  25
ATOM     25  N2  UNL     1      25.873  -9.562 -36.253  0.00  0.00    +0.000 N 
ATOM     26  H6  UNL     1      25.299 -10.426 -36.123  0.00  0.00    +0.000 HD
BRANCH  25  27
ATOM     27  C5  UNL     1      26.138  -8.759 -35.093  0.00  0.00    +0.000 C 
ATOM     28  S1  UNL     1      25.123  -8.784 -33.795  0.00  0.00    +0.000 S 
BRANCH  27  29
ATOM     29  N1  UNL     1      27.364  -8.013 -35.033  0.00  0.00    +0.000 N 
ATOM     30  H5  UNL     1      27.304  -6.976 -35.142  0.00  0.00    +0.000 HD
BRANCH  29  33
ATOM     31  C2  UNL     1      30.912  -8.987 -35.709  0.00  0.00    +0.000 A 
ATOM     32  C3  UNL     1      29.626  -8.459 -35.866  0.00  0.00    +0.000 A 
ATOM     33  C4  UNL     1      28.664  -8.600 -34.857  0.00  0.00    +0.000 A 
ATOM     34  C24 UNL     1      29.012  -9.251 -33.662  0.00  0.00    +0.000 A 
ATOM     35  C25 UNL     1      30.297  -9.776 -33.479  0.00  0.00    +0.000 A 
ATOM     36  C27 UNL     1      31.246  -9.650 -34.512  0.00  0.00    +0.000 A 
BRANCH  31  38
ATOM     37  C1  UNL     1      31.780  -9.568 -37.980  0.00  0.00    +0.000 C 
ATOM     38  O1  UNL     1      31.825  -8.832 -36.762  0.00  0.00    +0.000 OA
ENDBRANCH  31  38
BRANCH  35  39
ATOM     39  O3  UNL     1      30.591 -10.405 -32.259  0.00  0.00    +0.000 OA
ATOM     40  C26 UNL     1      31.902 -10.548 -31.720  0.00  0.00    +0.000 C 
ENDBRANCH  35  39
ENDBRANCH  29  33
ENDBRANCH  27  29
ENDBRANCH  25  27
ENDBRANCH   1  25
TORSDOF 8
ENDMDL
