MODEL 1
REMARK VINA RESULT:    -6.644      0.000      0.000
REMARK INTER + INTRA:          -9.671
REMARK INTER:                  -8.780
REMARK INTRA:                  -0.891
REMARK UNBOUND:                -0.891
REMARK  Name = resultss/4CJN/ligands/lig_424_t1.pdb
REMARK  7 active torsions:
REMARK  status: ('A' for Active; 'I' for Inactive)
REMARK    1  A    between atoms: C1_1  and  O1_2
REMARK    2  A    between atoms: O1_2  and  C2_3
REMARK    3  A    between atoms: C7_8  and  N1_9
REMARK    4  A    between atoms: C8_10  and  S1_11
REMARK    5  A    between atoms: N2_12  and  N3_13
REMARK    6  A    between atoms: C9_14  and  C10_16
REMARK    7  A    between atoms: C20_27  and  C21_28
REMARK                            x       y       z     vdW  Elec       q    Type
REMARK                         _______ _______ _______ _____ _____    ______ ____
ROOT
ATOM      1  C10 UNL     1      27.935  -9.736 -39.913  0.00  0.00    +0.000 A 
ATOM      2  C11 UNL     1      27.285  -8.763 -40.704  0.00  0.00    +0.000 A 
ATOM      3  C12 UNL     1      27.798  -8.531 -41.975  0.00  0.00    +0.000 A 
ATOM      4  C13 UNL     1      28.899  -9.205 -42.455  0.00  0.00    +0.000 A 
ATOM      5  N4  UNL     1      29.170  -8.856 -43.736  0.00  0.00    +0.000 N 
ATOM      6  C14 UNL     1      28.232  -7.935 -44.048  0.00  0.00    +0.000 A 
ATOM      7  C15 UNL     1      28.075  -7.273 -45.265  0.00  0.00    +0.000 A 
ATOM      8  C16 UNL     1      27.012  -6.359 -45.387  0.00  0.00    +0.000 A 
ATOM      9  C17 UNL     1      26.135  -6.131 -44.302  0.00  0.00    +0.000 A 
ATOM     10  C18 UNL     1      26.309  -6.815 -43.086  0.00  0.00    +0.000 A 
ATOM     11  C19 UNL     1      27.374  -7.709 -42.993  0.00  0.00    +0.000 A 
ATOM     12  C20 UNL     1      29.548 -10.154 -41.654  0.00  0.00    +0.000 A 
ATOM     13  N5  UNL     1      29.032 -10.391 -40.409  0.00  0.00    +0.000 NA
ATOM     14  H12 UNL     1      29.912  -9.232 -44.367  0.00  0.00    +0.000 HD
ENDROOT
BRANCH  12  15
ATOM     15  C21 UNL     1      30.745 -10.899 -42.097  0.00  0.00    +0.000 A 
ATOM     16  C22 UNL     1      30.623 -12.113 -42.796  0.00  0.00    +0.000 A 
ATOM     17  C23 UNL     1      31.765 -12.793 -43.233  0.00  0.00    +0.000 A 
ATOM     18  C24 UNL     1      33.033 -12.260 -42.990  0.00  0.00    +0.000 A 
ATOM     19  C25 UNL     1      33.162 -11.042 -42.316  0.00  0.00    +0.000 A 
ATOM     20  C26 UNL     1      32.023 -10.360 -41.879  0.00  0.00    +0.000 A 
ENDBRANCH  12  15
BRANCH   1  22
ATOM     21  N3  UNL     1      26.539  -9.168 -37.883  0.00  0.00    +0.000 N 
ATOM     22  C9  UNL     1      27.453 -10.050 -38.552  0.00  0.00    +0.000 C 
ATOM     23  O2  UNL     1      27.867 -11.087 -37.964  0.00  0.00    +0.000 OA
ATOM     24  H10 UNL     1      26.474  -8.175 -38.200  0.00  0.00    +0.000 HD
BRANCH  21  27
ATOM     25  N1  UNL     1      27.374  -8.295 -35.297  0.00  0.00    +0.000 NA
ATOM     26  C8  UNL     1      26.262  -8.962 -35.415  0.00  0.00    +0.000 C 
ATOM     27  N2  UNL     1      25.896  -9.522 -36.683  0.00  0.00    +0.000 N 
ATOM     28  H9  UNL     1      25.222 -10.320 -36.694  0.00  0.00    +0.000 HD
BRANCH  25  34
ATOM     29  C2  UNL     1      28.853  -8.281 -33.319  0.00  0.00    +0.000 A 
ATOM     30  C3  UNL     1      29.277  -7.651 -32.131  0.00  0.00    +0.000 A 
ATOM     31  C4  UNL     1      28.682  -6.457 -31.714  0.00  0.00    +0.000 A 
ATOM     32  C5  UNL     1      27.656  -5.885 -32.469  0.00  0.00    +0.000 A 
ATOM     33  C6  UNL     1      27.232  -6.498 -33.649  0.00  0.00    +0.000 A 
ATOM     34  C7  UNL     1      27.842  -7.678 -34.092  0.00  0.00    +0.000 A 
BRANCH  29  36
ATOM     35  C1  UNL     1      30.768  -9.861 -33.634  0.00  0.00    +0.000 C 
ATOM     36  O1  UNL     1      29.396  -9.502 -33.747  0.00  0.00    +0.000 OA
ENDBRANCH  29  36
ENDBRANCH  25  34
BRANCH  26  37
ATOM     37  S1  UNL     1      25.225  -9.322 -33.988  0.00  0.00    +0.000 S 
ATOM     38  H8  UNL     1      25.060 -10.666 -34.371  0.00  0.00    +0.000 HD
ENDBRANCH  26  37
ENDBRANCH  21  27
ENDBRANCH   1  22
TORSDOF 6
ENDMDL
MODEL 2
REMARK VINA RESULT:    -6.430      2.606      3.651
REMARK INTER + INTRA:          -9.388
REMARK INTER:                  -8.601
REMARK INTRA:                  -0.787
REMARK UNBOUND:                -0.891
REMARK  Name = resultss/4CJN/ligands/lig_424_t1.pdb
REMARK  7 active torsions:
REMARK  status: ('A' for Active; 'I' for Inactive)
REMARK    1  A    between atoms: C1_1  and  O1_2
REMARK    2  A    between atoms: O1_2  and  C2_3
REMARK    3  A    between atoms: C7_8  and  N1_9
REMARK    4  A    between atoms: C8_10  and  S1_11
REMARK    5  A    between atoms: N2_12  and  N3_13
REMARK    6  A    between atoms: C9_14  and  C10_16
REMARK    7  A    between atoms: C20_27  and  C21_28
REMARK                            x       y       z     vdW  Elec       q    Type
REMARK                         _______ _______ _______ _____ _____    ______ ____
ROOT
ATOM      1  C10 UNL     1      24.783  -7.545 -39.895  0.00  0.00    +0.000 A 
ATOM      2  C11 UNL     1      23.896  -7.089 -40.895  0.00  0.00    +0.000 A 
ATOM      3  C12 UNL     1      24.251  -7.329 -42.217  0.00  0.00    +0.000 A 
ATOM      4  C13 UNL     1      25.420  -7.974 -42.557  0.00  0.00    +0.000 A 
ATOM      5  N4  UNL     1      25.515  -8.147 -43.898  0.00  0.00    +0.000 N 
ATOM      6  C14 UNL     1      24.395  -7.582 -44.398  0.00  0.00    +0.000 A 
ATOM      7  C15 UNL     1      24.015  -7.511 -45.738  0.00  0.00    +0.000 A 
ATOM      8  C16 UNL     1      22.789  -6.891 -46.044  0.00  0.00    +0.000 A 
ATOM      9  C17 UNL     1      21.974  -6.368 -45.015  0.00  0.00    +0.000 A 
ATOM     10  C18 UNL     1      22.373  -6.457 -43.670  0.00  0.00    +0.000 A 
ATOM     11  C19 UNL     1      23.596  -7.069 -43.398  0.00  0.00    +0.000 A 
ATOM     12  C20 UNL     1      26.302  -8.404 -41.557  0.00  0.00    +0.000 A 
ATOM     13  N5  UNL     1      25.944  -8.180 -40.256  0.00  0.00    +0.000 NA
ATOM     14  H12 UNL     1      26.263  -8.638 -44.436  0.00  0.00    +0.000 HD
ENDROOT
BRANCH  12  15
ATOM     15  C21 UNL     1      27.581  -9.083 -41.850  0.00  0.00    +0.000 A 
ATOM     16  C22 UNL     1      28.002 -10.192 -41.094  0.00  0.00    +0.000 A 
ATOM     17  C23 UNL     1      29.202 -10.841 -41.401  0.00  0.00    +0.000 A 
ATOM     18  C24 UNL     1      29.983 -10.400 -42.472  0.00  0.00    +0.000 A 
ATOM     19  C25 UNL     1      29.561  -9.314 -43.243  0.00  0.00    +0.000 A 
ATOM     20  C26 UNL     1      28.362  -8.662 -42.940  0.00  0.00    +0.000 A 
ENDBRANCH  12  15
BRANCH   1  22
ATOM     21  N3  UNL     1      24.241  -8.461 -37.602  0.00  0.00    +0.000 N 
ATOM     22  C9  UNL     1      24.483  -7.338 -38.464  0.00  0.00    +0.000 C 
ATOM     23  O2  UNL     1      24.414  -6.166 -38.000  0.00  0.00    +0.000 OA
ATOM     24  H10 UNL     1      23.954  -9.370 -38.028  0.00  0.00    +0.000 HD
BRANCH  21  27
ATOM     25  N1  UNL     1      26.474  -8.645 -35.834  0.00  0.00    +0.000 NA
ATOM     26  C8  UNL     1      25.313  -8.298 -35.358  0.00  0.00    +0.000 C 
ATOM     27  N2  UNL     1      24.156  -8.330 -36.204  0.00  0.00    +0.000 N 
ATOM     28  H9  UNL     1      23.216  -8.396 -35.753  0.00  0.00    +0.000 HD
BRANCH  25  34
ATOM     29  C2  UNL     1      28.552  -7.520 -35.115  0.00  0.00    +0.000 A 
ATOM     30  C3  UNL     1      29.760  -7.561 -34.388  0.00  0.00    +0.000 A 
ATOM     31  C4  UNL     1      30.118  -8.711 -33.680  0.00  0.00    +0.000 A 
ATOM     32  C5  UNL     1      29.285  -9.832 -33.696  0.00  0.00    +0.000 A 
ATOM     33  C6  UNL     1      28.085  -9.800 -34.408  0.00  0.00    +0.000 A 
ATOM     34  C7  UNL     1      27.702  -8.642 -35.096  0.00  0.00    +0.000 A 
BRANCH  29  36
ATOM     35  C1  UNL     1      28.922  -5.883 -36.971  0.00  0.00    +0.000 C 
ATOM     36  O1  UNL     1      28.179  -6.400 -35.873  0.00  0.00    +0.000 OA
ENDBRANCH  29  36
ENDBRANCH  25  34
BRANCH  26  37
ATOM     37  S1  UNL     1      25.089  -7.903 -33.616  0.00  0.00    +0.000 S 
ATOM     38  H8  UNL     1      25.988  -8.906 -33.211  0.00  0.00    +0.000 HD
ENDBRANCH  26  37
ENDBRANCH  21  27
ENDBRANCH   1  22
TORSDOF 6
ENDMDL
MODEL 3
REMARK VINA RESULT:    -6.375      3.380      9.663
REMARK INTER + INTRA:          -9.315
REMARK INTER:                  -8.137
REMARK INTRA:                  -1.178
REMARK UNBOUND:                -0.891
REMARK  Name = resultss/4CJN/ligands/lig_424_t1.pdb
REMARK  7 active torsions:
REMARK  status: ('A' for Active; 'I' for Inactive)
REMARK    1  A    between atoms: C1_1  and  O1_2
REMARK    2  A    between atoms: O1_2  and  C2_3
REMARK    3  A    between atoms: C7_8  and  N1_9
REMARK    4  A    between atoms: C8_10  and  S1_11
REMARK    5  A    between atoms: N2_12  and  N3_13
REMARK    6  A    between atoms: C9_14  and  C10_16
REMARK    7  A    between atoms: C20_27  and  C21_28
REMARK                            x       y       z     vdW  Elec       q    Type
REMARK                         _______ _______ _______ _____ _____    ______ ____
ROOT
ATOM      1  C10 UNL     1      30.491  -9.331 -36.776  0.00  0.00    +0.000 A 
ATOM      2  C11 UNL     1      31.619  -9.528 -35.950  0.00  0.00    +0.000 A 
ATOM      3  C12 UNL     1      31.397  -9.612 -34.581  0.00  0.00    +0.000 A 
ATOM      4  C13 UNL     1      30.137  -9.500 -34.034  0.00  0.00    +0.000 A 
ATOM      5  N4  UNL     1      30.166  -9.678 -32.691  0.00  0.00    +0.000 N 
ATOM      6  C14 UNL     1      31.468  -9.884 -32.398  0.00  0.00    +0.000 A 
ATOM      7  C15 UNL     1      32.019 -10.131 -31.141  0.00  0.00    +0.000 A 
ATOM      8  C16 UNL     1      33.408 -10.340 -31.059  0.00  0.00    +0.000 A 
ATOM      9  C17 UNL     1      34.208 -10.304 -32.224  0.00  0.00    +0.000 A 
ATOM     10  C18 UNL     1      33.630 -10.060 -33.482  0.00  0.00    +0.000 A 
ATOM     11  C19 UNL     1      32.253  -9.850 -33.531  0.00  0.00    +0.000 A 
ATOM     12  C20 UNL     1      29.028  -9.284 -34.863  0.00  0.00    +0.000 A 
ATOM     13  N5  UNL     1      29.247  -9.217 -36.211  0.00  0.00    +0.000 NA
ATOM     14  H12 UNL     1      29.364  -9.692 -32.023  0.00  0.00    +0.000 HD
ENDROOT
BRANCH  12  15
ATOM     15  C21 UNL     1      27.652  -9.135 -34.343  0.00  0.00    +0.000 A 
ATOM     16  C22 UNL     1      27.250  -7.958 -33.688  0.00  0.00    +0.000 A 
ATOM     17  C23 UNL     1      25.937  -7.821 -33.225  0.00  0.00    +0.000 A 
ATOM     18  C24 UNL     1      25.013  -8.850 -33.426  0.00  0.00    +0.000 A 
ATOM     19  C25 UNL     1      25.398 -10.013 -34.097  0.00  0.00    +0.000 A 
ATOM     20  C26 UNL     1      26.709 -10.154 -34.561  0.00  0.00    +0.000 A 
ENDBRANCH  12  15
BRANCH   1  22
ATOM     21  N3  UNL     1      30.312 -10.358 -39.080  0.00  0.00    +0.000 N 
ATOM     22  C9  UNL     1      30.634  -9.236 -38.244  0.00  0.00    +0.000 C 
ATOM     23  O2  UNL     1      31.065  -8.171 -38.765  0.00  0.00    +0.000 OA
ATOM     24  H10 UNL     1      30.300 -11.314 -38.657  0.00  0.00    +0.000 HD
BRANCH  21  27
ATOM     25  N1  UNL     1      27.959  -9.598 -40.504  0.00  0.00    +0.000 NA
ATOM     26  C8  UNL     1      29.076  -9.744 -41.155  0.00  0.00    +0.000 C 
ATOM     27  N2  UNL     1      30.234 -10.254 -40.481  0.00  0.00    +0.000 N 
ATOM     28  H9  UNL     1      30.990 -10.687 -41.056  0.00  0.00    +0.000 HD
BRANCH  25  34
ATOM     29  C2  UNL     1      26.449  -7.712 -41.019  0.00  0.00    +0.000 A 
ATOM     30  C3  UNL     1      25.233  -7.250 -41.564  0.00  0.00    +0.000 A 
ATOM     31  C4  UNL     1      24.319  -8.152 -42.113  0.00  0.00    +0.000 A 
ATOM     32  C5  UNL     1      24.601  -9.520 -42.118  0.00  0.00    +0.000 A 
ATOM     33  C6  UNL     1      25.804  -9.987 -41.586  0.00  0.00    +0.000 A 
ATOM     34  C7  UNL     1      26.740  -9.089 -41.061  0.00  0.00    +0.000 A 
BRANCH  29  36
ATOM     35  C1  UNL     1      28.276  -6.004 -41.133  0.00  0.00    +0.000 C 
ATOM     36  O1  UNL     1      27.373  -6.842 -40.419  0.00  0.00    +0.000 OA
ENDBRANCH  29  36
ENDBRANCH  25  34
BRANCH  26  37
ATOM     37  S1  UNL     1      29.179  -9.450 -42.928  0.00  0.00    +0.000 S 
ATOM     38  H8  UNL     1      30.421  -8.801 -42.810  0.00  0.00    +0.000 HD
ENDBRANCH  26  37
ENDBRANCH  21  27
ENDBRANCH   1  22
TORSDOF 6
ENDMDL
MODEL 4
REMARK VINA RESULT:    -6.341      3.631      8.623
REMARK INTER + INTRA:          -9.271
REMARK INTER:                  -9.774
REMARK INTRA:                   0.503
REMARK UNBOUND:                -0.891
REMARK  Name = resultss/4CJN/ligands/lig_424_t1.pdb
REMARK  7 active torsions:
REMARK  status: ('A' for Active; 'I' for Inactive)
REMARK    1  A    between atoms: C1_1  and  O1_2
REMARK    2  A    between atoms: O1_2  and  C2_3
REMARK    3  A    between atoms: C7_8  and  N1_9
REMARK    4  A    between atoms: C8_10  and  S1_11
REMARK    5  A    between atoms: N2_12  and  N3_13
REMARK    6  A    between atoms: C9_14  and  C10_16
REMARK    7  A    between atoms: C20_27  and  C21_28
REMARK                            x       y       z     vdW  Elec       q    Type
REMARK                         _______ _______ _______ _____ _____    ______ ____
ROOT
ATOM      1  C10 UNL     1      26.251  -9.472 -40.989  0.00  0.00    +0.000 A 
ATOM      2  C11 UNL     1      26.030  -9.420 -39.596  0.00  0.00    +0.000 A 
ATOM      3  C12 UNL     1      27.115  -9.687 -38.770  0.00  0.00    +0.000 A 
ATOM      4  C13 UNL     1      28.359 -10.001 -39.273  0.00  0.00    +0.000 A 
ATOM      5  N4  UNL     1      29.267 -10.156 -38.279  0.00  0.00    +0.000 N 
ATOM      6  C14 UNL     1      28.569  -9.954 -37.140  0.00  0.00    +0.000 A 
ATOM      7  C15 UNL     1      29.059  -9.992 -35.835  0.00  0.00    +0.000 A 
ATOM      8  C16 UNL     1      28.160  -9.731 -34.785  0.00  0.00    +0.000 A 
ATOM      9  C17 UNL     1      26.805  -9.435 -35.058  0.00  0.00    +0.000 A 
ATOM     10  C18 UNL     1      26.334  -9.396 -36.382  0.00  0.00    +0.000 A 
ATOM     11  C19 UNL     1      27.246  -9.665 -37.401  0.00  0.00    +0.000 A 
ATOM     12  C20 UNL     1      28.561 -10.069 -40.658  0.00  0.00    +0.000 A 
ATOM     13  N5  UNL     1      27.495  -9.792 -41.469  0.00  0.00    +0.000 NA
ATOM     14  H12 UNL     1      30.289 -10.352 -38.360  0.00  0.00    +0.000 HD
ENDROOT
BRANCH  12  15
ATOM     15  C21 UNL     1      29.862 -10.419 -41.265  0.00  0.00    +0.000 A 
ATOM     16  C22 UNL     1      29.979 -11.504 -42.152  0.00  0.00    +0.000 A 
ATOM     17  C23 UNL     1      31.212 -11.806 -42.739  0.00  0.00    +0.000 A 
ATOM     18  C24 UNL     1      32.332 -11.020 -42.458  0.00  0.00    +0.000 A 
ATOM     19  C25 UNL     1      32.220  -9.926 -41.596  0.00  0.00    +0.000 A 
ATOM     20  C26 UNL     1      30.990  -9.621 -41.008  0.00  0.00    +0.000 A 
ENDBRANCH  12  15
BRANCH   1  22
ATOM     21  N3  UNL     1      24.574  -7.885 -42.022  0.00  0.00    +0.000 N 
ATOM     22  C9  UNL     1      25.154  -9.197 -41.941  0.00  0.00    +0.000 C 
ATOM     23  O2  UNL     1      24.708 -10.125 -42.670  0.00  0.00    +0.000 OA
ATOM     24  H10 UNL     1      24.685  -7.235 -41.212  0.00  0.00    +0.000 HD
BRANCH  21  27
ATOM     25  N1  UNL     1      25.369  -7.142 -44.661  0.00  0.00    +0.000 NA
ATOM     26  C8  UNL     1      24.102  -7.281 -44.393  0.00  0.00    +0.000 C 
ATOM     27  N2  UNL     1      23.679  -7.522 -43.044  0.00  0.00    +0.000 N 
ATOM     28  H9  UNL     1      22.696  -7.286 -42.786  0.00  0.00    +0.000 HD
BRANCH  25  34
ATOM     29  C2  UNL     1      27.285  -6.630 -46.132  0.00  0.00    +0.000 A 
ATOM     30  C3  UNL     1      27.784  -6.394 -47.430  0.00  0.00    +0.000 A 
ATOM     31  C4  UNL     1      26.923  -6.413 -48.530  0.00  0.00    +0.000 A 
ATOM     32  C5  UNL     1      25.561  -6.658 -48.350  0.00  0.00    +0.000 A 
ATOM     33  C6  UNL     1      25.057  -6.898 -47.070  0.00  0.00    +0.000 A 
ATOM     34  C7  UNL     1      25.916  -6.911 -45.964  0.00  0.00    +0.000 A 
BRANCH  29  36
ATOM     35  C1  UNL     1      28.573  -7.714 -44.281  0.00  0.00    +0.000 C 
ATOM     36  O1  UNL     1      28.110  -6.575 -44.998  0.00  0.00    +0.000 OA
ENDBRANCH  29  36
ENDBRANCH  25  34
BRANCH  26  37
ATOM     37  S1  UNL     1      22.842  -7.042 -45.655  0.00  0.00    +0.000 S 
ATOM     38  H8  UNL     1      21.806  -7.409 -44.778  0.00  0.00    +0.000 HD
ENDBRANCH  26  37
ENDBRANCH  21  27
ENDBRANCH   1  22
TORSDOF 6
ENDMDL
MODEL 5
REMARK VINA RESULT:    -6.333      1.719      2.772
REMARK INTER + INTRA:          -9.260
REMARK INTER:                  -8.206
REMARK INTRA:                  -1.055
REMARK UNBOUND:                -0.891
REMARK  Name = resultss/4CJN/ligands/lig_424_t1.pdb
REMARK  7 active torsions:
REMARK  status: ('A' for Active; 'I' for Inactive)
REMARK    1  A    between atoms: C1_1  and  O1_2
REMARK    2  A    between atoms: O1_2  and  C2_3
REMARK    3  A    between atoms: C7_8  and  N1_9
REMARK    4  A    between atoms: C8_10  and  S1_11
REMARK    5  A    between atoms: N2_12  and  N3_13
REMARK    6  A    between atoms: C9_14  and  C10_16
REMARK    7  A    between atoms: C20_27  and  C21_28
REMARK                            x       y       z     vdW  Elec       q    Type
REMARK                         _______ _______ _______ _____ _____    ______ ____
ROOT
ATOM      1  C10 UNL     1      28.458 -10.078 -40.054  0.00  0.00    +0.000 A 
ATOM      2  C11 UNL     1      27.694  -9.096 -40.720  0.00  0.00    +0.000 A 
ATOM      3  C12 UNL     1      28.097  -8.736 -42.000  0.00  0.00    +0.000 A 
ATOM      4  C13 UNL     1      29.199  -9.298 -42.607  0.00  0.00    +0.000 A 
ATOM      5  N4  UNL     1      29.352  -8.837 -43.872  0.00  0.00    +0.000 N 
ATOM      6  C14 UNL     1      28.340  -7.960 -44.045  0.00  0.00    +0.000 A 
ATOM      7  C15 UNL     1      28.053  -7.223 -45.193  0.00  0.00    +0.000 A 
ATOM      8  C16 UNL     1      26.930  -6.375 -45.169  0.00  0.00    +0.000 A 
ATOM      9  C17 UNL     1      26.122  -6.287 -44.012  0.00  0.00    +0.000 A 
ATOM     10  C18 UNL     1      26.427  -7.046 -42.868  0.00  0.00    +0.000 A 
ATOM     11  C19 UNL     1      27.549  -7.871 -42.919  0.00  0.00    +0.000 A 
ATOM     12  C20 UNL     1      29.962 -10.258 -41.929  0.00  0.00    +0.000 A 
ATOM     13  N5  UNL     1      29.555 -10.621 -40.674  0.00  0.00    +0.000 NA
ATOM     14  H12 UNL     1      30.068  -9.116 -44.580  0.00  0.00    +0.000 HD
ENDROOT
BRANCH  12  15
ATOM     15  C21 UNL     1      31.166 -10.886 -42.511  0.00  0.00    +0.000 A 
ATOM     16  C22 UNL     1      32.451 -10.393 -42.223  0.00  0.00    +0.000 A 
ATOM     17  C23 UNL     1      33.582 -11.015 -42.759  0.00  0.00    +0.000 A 
ATOM     18  C24 UNL     1      33.442 -12.141 -43.575  0.00  0.00    +0.000 A 
ATOM     19  C25 UNL     1      32.170 -12.652 -43.848  0.00  0.00    +0.000 A 
ATOM     20  C26 UNL     1      31.037 -12.033 -43.313  0.00  0.00    +0.000 A 
ENDBRANCH  12  15
BRANCH   1  22
ATOM     21  N3  UNL     1      28.491  -9.751 -37.547  0.00  0.00    +0.000 N 
ATOM     22  C9  UNL     1      28.099 -10.524 -38.692  0.00  0.00    +0.000 C 
ATOM     23  O2  UNL     1      27.465 -11.603 -38.531  0.00  0.00    +0.000 OA
ATOM     24  H10 UNL     1      29.286  -9.079 -37.642  0.00  0.00    +0.000 HD
BRANCH  21  27
ATOM     25  N1  UNL     1      26.316  -8.357 -36.334  0.00  0.00    +0.000 NA
ATOM     26  C8  UNL     1      26.826  -9.390 -35.728  0.00  0.00    +0.000 C 
ATOM     27  N2  UNL     1      28.001 -10.019 -36.256  0.00  0.00    +0.000 N 
ATOM     28  H9  UNL     1      28.588 -10.591 -35.609  0.00  0.00    +0.000 HD
BRANCH  25  34
ATOM     29  C2  UNL     1      25.236  -6.542 -35.053  0.00  0.00    +0.000 A 
ATOM     30  C3  UNL     1      24.055  -5.883 -34.650  0.00  0.00    +0.000 A 
ATOM     31  C4  UNL     1      22.809  -6.344 -35.080  0.00  0.00    +0.000 A 
ATOM     32  C5  UNL     1      22.723  -7.467 -35.905  0.00  0.00    +0.000 A 
ATOM     33  C6  UNL     1      23.885  -8.124 -36.314  0.00  0.00    +0.000 A 
ATOM     34  C7  UNL     1      25.141  -7.652 -35.914  0.00  0.00    +0.000 A 
BRANCH  29  36
ATOM     35  C1  UNL     1      27.017  -6.379 -33.303  0.00  0.00    +0.000 C 
ATOM     36  O1  UNL     1      26.503  -6.136 -34.608  0.00  0.00    +0.000 OA
ENDBRANCH  29  36
ENDBRANCH  25  34
BRANCH  26  37
ATOM     37  S1  UNL     1      26.173  -9.978 -34.157  0.00  0.00    +0.000 S 
ATOM     38  H8  UNL     1      26.346 -11.326 -34.520  0.00  0.00    +0.000 HD
ENDBRANCH  26  37
ENDBRANCH  21  27
ENDBRANCH   1  22
TORSDOF 6
ENDMDL
MODEL 6
REMARK VINA RESULT:    -6.327      3.048      9.102
REMARK INTER + INTRA:          -9.253
REMARK INTER:                  -8.342
REMARK INTRA:                  -0.911
REMARK UNBOUND:                -0.891
REMARK  Name = resultss/4CJN/ligands/lig_424_t1.pdb
REMARK  7 active torsions:
REMARK  status: ('A' for Active; 'I' for Inactive)
REMARK    1  A    between atoms: C1_1  and  O1_2
REMARK    2  A    between atoms: O1_2  and  C2_3
REMARK    3  A    between atoms: C7_8  and  N1_9
REMARK    4  A    between atoms: C8_10  and  S1_11
REMARK    5  A    between atoms: N2_12  and  N3_13
REMARK    6  A    between atoms: C9_14  and  C10_16
REMARK    7  A    between atoms: C20_27  and  C21_28
REMARK                            x       y       z     vdW  Elec       q    Type
REMARK                         _______ _______ _______ _____ _____    ______ ____
ROOT
ATOM      1  C10 UNL     1      29.522  -9.682 -36.795  0.00  0.00    +0.000 A 
ATOM      2  C11 UNL     1      28.141  -9.410 -36.683  0.00  0.00    +0.000 A 
ATOM      3  C12 UNL     1      27.664  -9.048 -35.429  0.00  0.00    +0.000 A 
ATOM      4  C13 UNL     1      28.488  -8.963 -34.328  0.00  0.00    +0.000 A 
ATOM      5  N4  UNL     1      27.809  -8.531 -33.238  0.00  0.00    +0.000 N 
ATOM      6  C14 UNL     1      26.539  -8.365 -33.666  0.00  0.00    +0.000 A 
ATOM      7  C15 UNL     1      25.450  -7.920 -32.917  0.00  0.00    +0.000 A 
ATOM      8  C16 UNL     1      24.208  -7.798 -33.567  0.00  0.00    +0.000 A 
ATOM      9  C17 UNL     1      24.082  -8.114 -34.939  0.00  0.00    +0.000 A 
ATOM     10  C18 UNL     1      25.196  -8.555 -35.676  0.00  0.00    +0.000 A 
ATOM     11  C19 UNL     1      26.411  -8.673 -35.004  0.00  0.00    +0.000 A 
ATOM     12  C20 UNL     1      29.853  -9.255 -34.447  0.00  0.00    +0.000 A 
ATOM     13  N5  UNL     1      30.323  -9.597 -35.685  0.00  0.00    +0.000 NA
ATOM     14  H12 UNL     1      28.179  -8.332 -32.282  0.00  0.00    +0.000 HD
ENDROOT
BRANCH  12  15
ATOM     15  C21 UNL     1      30.790  -9.203 -33.305  0.00  0.00    +0.000 A 
ATOM     16  C22 UNL     1      31.285 -10.383 -32.721  0.00  0.00    +0.000 A 
ATOM     17  C23 UNL     1      32.191 -10.318 -31.658  0.00  0.00    +0.000 A 
ATOM     18  C24 UNL     1      32.622  -9.077 -31.180  0.00  0.00    +0.000 A 
ATOM     19  C25 UNL     1      32.153  -7.900 -31.770  0.00  0.00    +0.000 A 
ATOM     20  C26 UNL     1      31.247  -7.961 -32.833  0.00  0.00    +0.000 A 
ENDBRANCH  12  15
BRANCH   1  22
ATOM     21  N3  UNL     1      29.278 -10.515 -39.170  0.00  0.00    +0.000 N 
ATOM     22  C9  UNL     1      30.115 -10.069 -38.092  0.00  0.00    +0.000 C 
ATOM     23  O2  UNL     1      31.367 -10.030 -38.246  0.00  0.00    +0.000 OA
ATOM     24  H10 UNL     1      28.323 -10.877 -38.949  0.00  0.00    +0.000 HD
BRANCH  21  27
ATOM     25  N1  UNL     1      28.457  -8.964 -41.420  0.00  0.00    +0.000 NA
ATOM     26  C8  UNL     1      29.432  -9.815 -41.557  0.00  0.00    +0.000 C 
ATOM     27  N2  UNL     1      29.768 -10.696 -40.476  0.00  0.00    +0.000 N 
ATOM     28  H9  UNL     1      30.283 -11.576 -40.699  0.00  0.00    +0.000 HD
BRANCH  25  34
ATOM     29  C2  UNL     1      26.908  -8.285 -43.221  0.00  0.00    +0.000 A 
ATOM     30  C3  UNL     1      26.533  -7.344 -44.203  0.00  0.00    +0.000 A 
ATOM     31  C4  UNL     1      27.287  -6.184 -44.391  0.00  0.00    +0.000 A 
ATOM     32  C5  UNL     1      28.424  -5.952 -43.614  0.00  0.00    +0.000 A 
ATOM     33  C6  UNL     1      28.802  -6.874 -42.637  0.00  0.00    +0.000 A 
ATOM     34  C7  UNL     1      28.035  -8.025 -42.418  0.00  0.00    +0.000 A 
BRANCH  29  36
ATOM     35  C1  UNL     1      24.951  -9.585 -42.360  0.00  0.00    +0.000 C 
ATOM     36  O1  UNL     1      26.202  -9.483 -43.031  0.00  0.00    +0.000 OA
ENDBRANCH  29  36
ENDBRANCH  25  34
BRANCH  26  37
ATOM     37  S1  UNL     1      30.294 -10.016 -43.124  0.00  0.00    +0.000 S 
ATOM     38  H8  UNL     1      29.746  -8.832 -43.648  0.00  0.00    +0.000 HD
ENDBRANCH  26  37
ENDBRANCH  21  27
ENDBRANCH   1  22
TORSDOF 6
ENDMDL
MODEL 7
REMARK VINA RESULT:    -6.232      3.377     10.195
REMARK INTER + INTRA:          -9.127
REMARK INTER:                  -8.278
REMARK INTRA:                  -0.849
REMARK UNBOUND:                -0.891
REMARK  Name = resultss/4CJN/ligands/lig_424_t1.pdb
REMARK  7 active torsions:
REMARK  status: ('A' for Active; 'I' for Inactive)
REMARK    1  A    between atoms: C1_1  and  O1_2
REMARK    2  A    between atoms: O1_2  and  C2_3
REMARK    3  A    between atoms: C7_8  and  N1_9
REMARK    4  A    between atoms: C8_10  and  S1_11
REMARK    5  A    between atoms: N2_12  and  N3_13
REMARK    6  A    between atoms: C9_14  and  C10_16
REMARK    7  A    between atoms: C20_27  and  C21_28
REMARK                            x       y       z     vdW  Elec       q    Type
REMARK                         _______ _______ _______ _____ _____    ______ ____
ROOT
ATOM      1  C10 UNL     1      30.024  -8.879 -36.883  0.00  0.00    +0.000 A 
ATOM      2  C11 UNL     1      31.186  -9.175 -36.137  0.00  0.00    +0.000 A 
ATOM      3  C12 UNL     1      31.023  -9.425 -34.780  0.00  0.00    +0.000 A 
ATOM      4  C13 UNL     1      29.789  -9.381 -34.169  0.00  0.00    +0.000 A 
ATOM      5  N4  UNL     1      29.874  -9.722 -32.861  0.00  0.00    +0.000 N 
ATOM      6  C14 UNL     1      31.187  -9.962 -32.652  0.00  0.00    +0.000 A 
ATOM      7  C15 UNL     1      31.790 -10.360 -31.460  0.00  0.00    +0.000 A 
ATOM      8  C16 UNL     1      33.181 -10.577 -31.464  0.00  0.00    +0.000 A 
ATOM      9  C17 UNL     1      33.931 -10.399 -32.649  0.00  0.00    +0.000 A 
ATOM     10  C18 UNL     1      33.300 -10.003 -33.842  0.00  0.00    +0.000 A 
ATOM     11  C19 UNL     1      31.923  -9.789 -33.806  0.00  0.00    +0.000 A 
ATOM     12  C20 UNL     1      28.645  -9.067 -34.916  0.00  0.00    +0.000 A 
ATOM     13  N5  UNL     1      28.806  -8.836 -36.255  0.00  0.00    +0.000 NA
ATOM     14  H12 UNL     1      29.102  -9.818 -32.165  0.00  0.00    +0.000 HD
ENDROOT
BRANCH  12  15
ATOM     15  C21 UNL     1      27.295  -8.983 -34.323  0.00  0.00    +0.000 A 
ATOM     16  C22 UNL     1      26.884  -7.839 -33.616  0.00  0.00    +0.000 A 
ATOM     17  C23 UNL     1      25.594  -7.763 -33.084  0.00  0.00    +0.000 A 
ATOM     18  C24 UNL     1      24.698  -8.821 -33.264  0.00  0.00    +0.000 A 
ATOM     19  C25 UNL     1      25.090  -9.952 -33.985  0.00  0.00    +0.000 A 
ATOM     20  C26 UNL     1      26.379 -10.031 -34.519  0.00  0.00    +0.000 A 
ENDBRANCH  12  15
BRANCH   1  22
ATOM     21  N3  UNL     1      29.230  -9.283 -39.250  0.00  0.00    +0.000 N 
ATOM     22  C9  UNL     1      30.104  -8.606 -38.333  0.00  0.00    +0.000 C 
ATOM     23  O2  UNL     1      30.961  -7.790 -38.772  0.00  0.00    +0.000 OA
ATOM     24  H10 UNL     1      28.785 -10.180 -38.952  0.00  0.00    +0.000 HD
BRANCH  21  27
ATOM     25  N1  UNL     1      30.830 -10.376 -41.345  0.00  0.00    +0.000 NA
ATOM     26  C8  UNL     1      29.852  -9.571 -41.646  0.00  0.00    +0.000 C 
ATOM     27  N2  UNL     1      29.126  -8.909 -40.602  0.00  0.00    +0.000 N 
ATOM     28  H9  UNL     1      28.607  -8.034 -40.839  0.00  0.00    +0.000 HD
BRANCH  25  34
ATOM     29  C2  UNL     1      32.947 -10.722 -42.569  0.00  0.00    +0.000 A 
ATOM     30  C3  UNL     1      33.689 -11.455 -43.520  0.00  0.00    +0.000 A 
ATOM     31  C4  UNL     1      33.103 -12.527 -44.196  0.00  0.00    +0.000 A 
ATOM     32  C5  UNL     1      31.776 -12.876 -43.942  0.00  0.00    +0.000 A 
ATOM     33  C6  UNL     1      31.034 -12.161 -42.999  0.00  0.00    +0.000 A 
ATOM     34  C7  UNL     1      31.620 -11.104 -42.293  0.00  0.00    +0.000 A 
BRANCH  29  36
ATOM     35  C1  UNL     1      34.366  -9.689 -40.786  0.00  0.00    +0.000 C 
ATOM     36  O1  UNL     1      33.486  -9.612 -41.901  0.00  0.00    +0.000 OA
ENDBRANCH  29  36
ENDBRANCH  25  34
BRANCH  26  37
ATOM     37  S1  UNL     1      29.468  -9.154 -43.354  0.00  0.00    +0.000 S 
ATOM     38  H8  UNL     1      28.207  -9.774 -43.286  0.00  0.00    +0.000 HD
ENDBRANCH  26  37
ENDBRANCH  21  27
ENDBRANCH   1  22
TORSDOF 6
ENDMDL
MODEL 8
REMARK VINA RESULT:    -6.202      2.246      4.891
REMARK INTER + INTRA:          -9.088
REMARK INTER:                  -8.098
REMARK INTRA:                  -0.990
REMARK UNBOUND:                -0.891
REMARK  Name = resultss/4CJN/ligands/lig_424_t1.pdb
REMARK  7 active torsions:
REMARK  status: ('A' for Active; 'I' for Inactive)
REMARK    1  A    between atoms: C1_1  and  O1_2
REMARK    2  A    between atoms: O1_2  and  C2_3
REMARK    3  A    between atoms: C7_8  and  N1_9
REMARK    4  A    between atoms: C8_10  and  S1_11
REMARK    5  A    between atoms: N2_12  and  N3_13
REMARK    6  A    between atoms: C9_14  and  C10_16
REMARK    7  A    between atoms: C20_27  and  C21_28
REMARK                            x       y       z     vdW  Elec       q    Type
REMARK                         _______ _______ _______ _____ _____    ______ ____
ROOT
ATOM      1  C10 UNL     1      30.199  -8.564 -39.220  0.00  0.00    +0.000 A 
ATOM      2  C11 UNL     1      31.344  -9.136 -39.815  0.00  0.00    +0.000 A 
ATOM      3  C12 UNL     1      31.178  -9.753 -41.049  0.00  0.00    +0.000 A 
ATOM      4  C13 UNL     1      29.953  -9.821 -41.676  0.00  0.00    +0.000 A 
ATOM      5  N4  UNL     1      30.054 -10.410 -42.892  0.00  0.00    +0.000 N 
ATOM      6  C14 UNL     1      31.361 -10.731 -43.012  0.00  0.00    +0.000 A 
ATOM      7  C15 UNL     1      31.978 -11.351 -44.098  0.00  0.00    +0.000 A 
ATOM      8  C16 UNL     1      33.366 -11.578 -44.026  0.00  0.00    +0.000 A 
ATOM      9  C17 UNL     1      34.100 -11.179 -42.886  0.00  0.00    +0.000 A 
ATOM     10  C18 UNL     1      33.457 -10.550 -41.806  0.00  0.00    +0.000 A 
ATOM     11  C19 UNL     1      32.081 -10.345 -41.902  0.00  0.00    +0.000 A 
ATOM     12  C20 UNL     1      28.820  -9.266 -41.067  0.00  0.00    +0.000 A 
ATOM     13  N5  UNL     1      28.988  -8.647 -39.859  0.00  0.00    +0.000 NA
ATOM     14  H12 UNL     1      29.305 -10.558 -43.604  0.00  0.00    +0.000 HD
ENDROOT
BRANCH  12  15
ATOM     15  C21 UNL     1      27.473  -9.320 -41.673  0.00  0.00    +0.000 A 
ATOM     16  C22 UNL     1      26.443 -10.074 -41.081  0.00  0.00    +0.000 A 
ATOM     17  C23 UNL     1      25.166 -10.093 -41.652  0.00  0.00    +0.000 A 
ATOM     18  C24 UNL     1      24.903  -9.350 -42.806  0.00  0.00    +0.000 A 
ATOM     19  C25 UNL     1      25.915  -8.581 -43.386  0.00  0.00    +0.000 A 
ATOM     20  C26 UNL     1      27.192  -8.558 -42.819  0.00  0.00    +0.000 A 
ENDBRANCH  12  15
BRANCH   1  22
ATOM     21  N3  UNL     1      29.457  -6.745 -37.628  0.00  0.00    +0.000 N 
ATOM     22  C9  UNL     1      30.285  -7.884 -37.911  0.00  0.00    +0.000 C 
ATOM     23  O2  UNL     1      31.108  -8.290 -37.045  0.00  0.00    +0.000 OA
ATOM     24  H10 UNL     1      29.051  -6.207 -38.426  0.00  0.00    +0.000 HD
BRANCH  21  27
ATOM     25  N1  UNL     1      27.291  -7.249 -35.839  0.00  0.00    +0.000 NA
ATOM     26  C8  UNL     1      28.319  -6.571 -35.418  0.00  0.00    +0.000 C 
ATOM     27  N2  UNL     1      29.352  -6.195 -36.338  0.00  0.00    +0.000 N 
ATOM     28  H9  UNL     1      29.964  -5.387 -36.089  0.00  0.00    +0.000 HD
BRANCH  25  34
ATOM     29  C2  UNL     1      26.185  -8.999 -34.491  0.00  0.00    +0.000 A 
ATOM     30  C3  UNL     1      25.090  -9.405 -33.700  0.00  0.00    +0.000 A 
ATOM     31  C4  UNL     1      24.027  -8.530 -33.467  0.00  0.00    +0.000 A 
ATOM     32  C5  UNL     1      24.037  -7.250 -34.023  0.00  0.00    +0.000 A 
ATOM     33  C6  UNL     1      25.118  -6.836 -34.804  0.00  0.00    +0.000 A 
ATOM     34  C7  UNL     1      26.203  -7.694 -35.018  0.00  0.00    +0.000 A 
BRANCH  29  36
ATOM     35  C1  UNL     1      28.469  -9.922 -34.050  0.00  0.00    +0.000 C 
ATOM     36  O1  UNL     1      27.252  -9.863 -34.784  0.00  0.00    +0.000 OA
ENDBRANCH  29  36
ENDBRANCH  25  34
BRANCH  26  37
ATOM     37  S1  UNL     1      28.419  -5.968 -33.725  0.00  0.00    +0.000 S 
ATOM     38  H8  UNL     1      27.917  -4.703 -34.081  0.00  0.00    +0.000 HD
ENDBRANCH  26  37
ENDBRANCH  21  27
ENDBRANCH   1  22
TORSDOF 6
ENDMDL
MODEL 9
REMARK VINA RESULT:    -6.191      2.480      5.231
REMARK INTER + INTRA:          -9.072
REMARK INTER:                  -8.408
REMARK INTRA:                  -0.664
REMARK UNBOUND:                -0.891
REMARK  Name = resultss/4CJN/ligands/lig_424_t1.pdb
REMARK  7 active torsions:
REMARK  status: ('A' for Active; 'I' for Inactive)
REMARK    1  A    between atoms: C1_1  and  O1_2
REMARK    2  A    between atoms: O1_2  and  C2_3
REMARK    3  A    between atoms: C7_8  and  N1_9
REMARK    4  A    between atoms: C8_10  and  S1_11
REMARK    5  A    between atoms: N2_12  and  N3_13
REMARK    6  A    between atoms: C9_14  and  C10_16
REMARK    7  A    between atoms: C20_27  and  C21_28
REMARK                            x       y       z     vdW  Elec       q    Type
REMARK                         _______ _______ _______ _____ _____    ______ ____
ROOT
ATOM      1  C10 UNL     1      30.068  -8.921 -39.052  0.00  0.00    +0.000 A 
ATOM      2  C11 UNL     1      31.223  -9.392 -39.713  0.00  0.00    +0.000 A 
ATOM      3  C12 UNL     1      31.064  -9.865 -41.011  0.00  0.00    +0.000 A 
ATOM      4  C13 UNL     1      29.838  -9.889 -41.637  0.00  0.00    +0.000 A 
ATOM      5  N4  UNL     1      29.946 -10.330 -42.914  0.00  0.00    +0.000 N 
ATOM      6  C14 UNL     1      31.259 -10.603 -43.075  0.00  0.00    +0.000 A 
ATOM      7  C15 UNL     1      31.885 -11.077 -44.227  0.00  0.00    +0.000 A 
ATOM      8  C16 UNL     1      33.278 -11.276 -44.187  0.00  0.00    +0.000 A 
ATOM      9  C17 UNL     1      34.008 -10.995 -43.010  0.00  0.00    +0.000 A 
ATOM     10  C18 UNL     1      33.357 -10.511 -41.862  0.00  0.00    +0.000 A 
ATOM     11  C19 UNL     1      31.976 -10.330 -41.929  0.00  0.00    +0.000 A 
ATOM     12  C20 UNL     1      28.695  -9.437 -40.964  0.00  0.00    +0.000 A 
ATOM     13  N5  UNL     1      28.855  -8.959 -39.693  0.00  0.00    +0.000 NA
ATOM     14  H12 UNL     1      29.196 -10.413 -43.636  0.00  0.00    +0.000 HD
ENDROOT
BRANCH  12  15
ATOM     15  C21 UNL     1      27.346  -9.454 -41.568  0.00  0.00    +0.000 A 
ATOM     16  C22 UNL     1      26.299 -10.187 -40.981  0.00  0.00    +0.000 A 
ATOM     17  C23 UNL     1      25.021 -10.170 -41.549  0.00  0.00    +0.000 A 
ATOM     18  C24 UNL     1      24.775  -9.412 -42.696  0.00  0.00    +0.000 A 
ATOM     19  C25 UNL     1      25.804  -8.662 -43.273  0.00  0.00    +0.000 A 
ATOM     20  C26 UNL     1      27.082  -8.676 -42.707  0.00  0.00    +0.000 A 
ENDBRANCH  12  15
BRANCH   1  22
ATOM     21  N3  UNL     1      29.118  -7.529 -37.167  0.00  0.00    +0.000 N 
ATOM     22  C9  UNL     1      30.145  -8.396 -37.673  0.00  0.00    +0.000 C 
ATOM     23  O2  UNL     1      31.131  -8.692 -36.943  0.00  0.00    +0.000 OA
ATOM     24  H10 UNL     1      28.515  -7.014 -37.847  0.00  0.00    +0.000 HD
BRANCH  21  27
ATOM     25  N1  UNL     1      26.760  -7.777 -35.578  0.00  0.00    +0.000 NA
ATOM     26  C8  UNL     1      27.878  -7.431 -35.008  0.00  0.00    +0.000 C 
ATOM     27  N2  UNL     1      29.039  -7.172 -35.809  0.00  0.00    +0.000 N 
ATOM     28  H9  UNL     1      29.795  -6.577 -35.404  0.00  0.00    +0.000 HD
BRANCH  25  34
ATOM     29  C2  UNL     1      24.395  -7.275 -35.073  0.00  0.00    +0.000 A 
ATOM     30  C3  UNL     1      23.216  -7.590 -34.366  0.00  0.00    +0.000 A 
ATOM     31  C4  UNL     1      23.195  -8.666 -33.475  0.00  0.00    +0.000 A 
ATOM     32  C5  UNL     1      24.345  -9.431 -33.272  0.00  0.00    +0.000 A 
ATOM     33  C6  UNL     1      25.516  -9.131 -33.971  0.00  0.00    +0.000 A 
ATOM     34  C7  UNL     1      25.540  -8.074 -34.889  0.00  0.00    +0.000 A 
BRANCH  29  36
ATOM     35  C1  UNL     1      23.930  -6.152 -37.261  0.00  0.00    +0.000 C 
ATOM     36  O1  UNL     1      24.468  -6.176 -35.944  0.00  0.00    +0.000 OA
ENDBRANCH  29  36
ENDBRANCH  25  34
BRANCH  26  37
ATOM     37  S1  UNL     1      27.977  -7.133 -33.236  0.00  0.00    +0.000 S 
ATOM     38  H8  UNL     1      28.995  -8.091 -33.070  0.00  0.00    +0.000 HD
ENDBRANCH  26  37
ENDBRANCH  21  27
ENDBRANCH   1  22
TORSDOF 6
ENDMDL
