MODEL 1
REMARK VINA RESULT:    -4.081      0.000      0.000
REMARK INTER + INTRA:          -5.631
REMARK INTER:                  -5.155
REMARK INTRA:                  -0.477
REMARK UNBOUND:                -0.477
REMARK  Name = resultss/4CJN/ligands/lig_7_t0.pdb
REMARK  7 active torsions:
REMARK  status: ('A' for Active; 'I' for Inactive)
REMARK    1  A    between atoms: O1_1  and  C1_2
REMARK    2  A    between atoms: C1_2  and  C2_3
REMARK    3  A    between atoms: C3_5  and  C4_6
REMARK    4  A    between atoms: C4_6  and  O2_7
REMARK    5  A    between atoms: C5_8  and  O3_9
REMARK    6  A    between atoms: C6_10  and  O4_11
REMARK    7  A    between atoms: C7_12  and  O5_13
REMARK                            x       y       z     vdW  Elec       q    Type
REMARK                         _______ _______ _______ _____ _____    ______ ____
ROOT
ATOM      1  C2  UNL     1      26.640  -6.795 -33.513  0.00  0.00    +0.000 C 
ATOM      2  N1  UNL     1      27.395  -7.531 -34.546  0.00  0.00    +0.000 NA
ATOM      3  C3  UNL     1      27.249  -8.996 -34.436  0.00  0.00    +0.000 C 
ATOM      4  C5  UNL     1      25.765  -9.421 -34.527  0.00  0.00    +0.000 C 
ATOM      5  C6  UNL     1      24.944  -8.714 -33.434  0.00  0.00    +0.000 C 
ATOM      6  C7  UNL     1      25.139  -7.188 -33.519  0.00  0.00    +0.000 C 
ATOM      7  H5  UNL     1      27.039  -7.221 -35.481  0.00  0.00    +0.000 HD
ENDROOT
BRANCH   4   8
ATOM      8  O3  UNL     1      25.667 -10.813 -34.359  0.00  0.00    +0.000 OA
ATOM      9  H11 UNL     1      24.782 -11.086 -34.715  0.00  0.00    +0.000 HD
ENDBRANCH   4   8
BRANCH   5  10
ATOM     10  O4  UNL     1      23.585  -9.026 -33.608  0.00  0.00    +0.000 OA
ATOM     11  H13 UNL     1      23.132  -8.194 -33.904  0.00  0.00    +0.000 HD
ENDBRANCH   5  10
BRANCH   6  12
ATOM     12  O5  UNL     1      24.459  -6.567 -32.458  0.00  0.00    +0.000 OA
ATOM     13  H15 UNL     1      23.867  -5.880 -32.861  0.00  0.00    +0.000 HD
ENDBRANCH   6  12
BRANCH   1  14
ATOM     14  C1  UNL     1      27.307  -6.921 -32.125  0.00  0.00    +0.000 C 
BRANCH  14  15
ATOM     15  O1  UNL     1      26.885  -5.883 -31.280  0.00  0.00    +0.000 OA
ATOM     16  H1  UNL     1      25.894  -5.924 -31.251  0.00  0.00    +0.000 HD
ENDBRANCH  14  15
ENDBRANCH   1  14
BRANCH   3  17
ATOM     17  C4  UNL     1      28.114  -9.690 -35.507  0.00  0.00    +0.000 C 
BRANCH  17  18
ATOM     18  O2  UNL     1      27.322 -10.261 -36.517  0.00  0.00    +0.000 OA
ATOM     19  H9  UNL     1      26.800  -9.523 -36.927  0.00  0.00    +0.000 HD
ENDBRANCH  17  18
ENDBRANCH   3  17
TORSDOF 7
ENDMDL
MODEL 2
REMARK VINA RESULT:    -3.913      1.785      3.761
REMARK INTER + INTRA:          -5.419
REMARK INTER:                  -4.913
REMARK INTRA:                  -0.507
REMARK UNBOUND:                -0.477
REMARK  Name = resultss/4CJN/ligands/lig_7_t0.pdb
REMARK  7 active torsions:
REMARK  status: ('A' for Active; 'I' for Inactive)
REMARK    1  A    between atoms: O1_1  and  C1_2
REMARK    2  A    between atoms: C1_2  and  C2_3
REMARK    3  A    between atoms: C3_5  and  C4_6
REMARK    4  A    between atoms: C4_6  and  O2_7
REMARK    5  A    between atoms: C5_8  and  O3_9
REMARK    6  A    between atoms: C6_10  and  O4_11
REMARK    7  A    between atoms: C7_12  and  O5_13
REMARK                            x       y       z     vdW  Elec       q    Type
REMARK                         _______ _______ _______ _____ _____    ______ ____
ROOT
ATOM      1  C2  UNL     1      27.257  -7.503 -33.519  0.00  0.00    +0.000 C 
ATOM      2  N1  UNL     1      26.094  -6.858 -32.879  0.00  0.00    +0.000 NA
ATOM      3  C3  UNL     1      24.824  -7.125 -33.583  0.00  0.00    +0.000 C 
ATOM      4  C5  UNL     1      24.543  -8.642 -33.680  0.00  0.00    +0.000 C 
ATOM      5  C6  UNL     1      25.711  -9.353 -34.387  0.00  0.00    +0.000 C 
ATOM      6  C7  UNL     1      27.041  -9.032 -33.680  0.00  0.00    +0.000 C 
ATOM      7  H5  UNL     1      26.026  -7.225 -31.900  0.00  0.00    +0.000 HD
ENDROOT
BRANCH   4   8
ATOM      8  O3  UNL     1      23.359  -8.853 -34.407  0.00  0.00    +0.000 OA
ATOM      9  H11 UNL     1      22.800  -8.041 -34.292  0.00  0.00    +0.000 HD
ENDBRANCH   4   8
BRANCH   5  10
ATOM     10  O4  UNL     1      25.486 -10.740 -34.361  0.00  0.00    +0.000 OA
ATOM     11  H13 UNL     1      26.259 -11.167 -34.814  0.00  0.00    +0.000 HD
ENDBRANCH   5  10
BRANCH   6  12
ATOM     12  O5  UNL     1      28.105  -9.611 -34.393  0.00  0.00    +0.000 OA
ATOM     13  H15 UNL     1      27.718 -10.348 -34.934  0.00  0.00    +0.000 HD
ENDBRANCH   6  12
BRANCH   1  14
ATOM     14  C1  UNL     1      27.648  -6.793 -34.834  0.00  0.00    +0.000 C 
BRANCH  14  15
ATOM     15  O1  UNL     1      29.020  -6.942 -35.085  0.00  0.00    +0.000 OA
ATOM     16  H1  UNL     1      29.458  -7.072 -34.204  0.00  0.00    +0.000 HD
ENDBRANCH  14  15
ENDBRANCH   1  14
BRANCH   3  17
ATOM     17  C4  UNL     1      23.672  -6.368 -32.891  0.00  0.00    +0.000 C 
BRANCH  17  18
ATOM     18  O2  UNL     1      22.916  -7.222 -32.072  0.00  0.00    +0.000 OA
ATOM     19  H9  UNL     1      22.034  -7.338 -32.511  0.00  0.00    +0.000 HD
ENDBRANCH  17  18
ENDBRANCH   3  17
TORSDOF 7
ENDMDL
MODEL 3
REMARK VINA RESULT:    -3.826      2.143      2.886
REMARK INTER + INTRA:          -5.310
REMARK INTER:                  -4.834
REMARK INTRA:                  -0.476
REMARK UNBOUND:                -0.477
REMARK  Name = resultss/4CJN/ligands/lig_7_t0.pdb
REMARK  7 active torsions:
REMARK  status: ('A' for Active; 'I' for Inactive)
REMARK    1  A    between atoms: O1_1  and  C1_2
REMARK    2  A    between atoms: C1_2  and  C2_3
REMARK    3  A    between atoms: C3_5  and  C4_6
REMARK    4  A    between atoms: C4_6  and  O2_7
REMARK    5  A    between atoms: C5_8  and  O3_9
REMARK    6  A    between atoms: C6_10  and  O4_11
REMARK    7  A    between atoms: C7_12  and  O5_13
REMARK                            x       y       z     vdW  Elec       q    Type
REMARK                         _______ _______ _______ _____ _____    ______ ____
ROOT
ATOM      1  C2  UNL     1      24.068  -7.373 -34.325  0.00  0.00    +0.000 C 
ATOM      2  N1  UNL     1      23.990  -7.292 -35.796  0.00  0.00    +0.000 NA
ATOM      3  C3  UNL     1      25.202  -7.800 -36.469  0.00  0.00    +0.000 C 
ATOM      4  C5  UNL     1      25.487  -9.269 -36.080  0.00  0.00    +0.000 C 
ATOM      5  C6  UNL     1      25.625  -9.395 -34.552  0.00  0.00    +0.000 C 
ATOM      6  C7  UNL     1      24.381  -8.818 -33.851  0.00  0.00    +0.000 C 
ATOM      7  H5  UNL     1      23.165  -7.860 -36.102  0.00  0.00    +0.000 HD
ENDROOT
BRANCH   4   8
ATOM      8  O3  UNL     1      26.678  -9.692 -36.694  0.00  0.00    +0.000 OA
ATOM      9  H11 UNL     1      27.351  -8.978 -36.545  0.00  0.00    +0.000 HD
ENDBRANCH   4   8
BRANCH   5  10
ATOM     10  O4  UNL     1      25.769 -10.752 -34.216  0.00  0.00    +0.000 OA
ATOM     11  H13 UNL     1      25.954 -11.241 -35.060  0.00  0.00    +0.000 HD
ENDBRANCH   5  10
BRANCH   6  12
ATOM     12  O5  UNL     1      24.565  -8.855 -32.459  0.00  0.00    +0.000 OA
ATOM     13  H15 UNL     1      24.819  -9.787 -32.229  0.00  0.00    +0.000 HD
ENDBRANCH   6  12
BRANCH   1  14
ATOM     14  C1  UNL     1      25.031  -6.312 -33.747  0.00  0.00    +0.000 C 
BRANCH  14  15
ATOM     15  O1  UNL     1      24.764  -6.093 -32.387  0.00  0.00    +0.000 OA
ATOM     16  H1  UNL     1      23.825  -5.779 -32.328  0.00  0.00    +0.000 HD
ENDBRANCH  14  15
ENDBRANCH   1  14
BRANCH   3  17
ATOM     17  C4  UNL     1      25.068  -7.623 -37.995  0.00  0.00    +0.000 C 
BRANCH  17  18
ATOM     18  O2  UNL     1      24.444  -8.733 -38.587  0.00  0.00    +0.000 OA
ATOM     19  H9  UNL     1      25.156  -9.398 -38.777  0.00  0.00    +0.000 HD
ENDBRANCH  17  18
ENDBRANCH   3  17
TORSDOF 7
ENDMDL
MODEL 4
REMARK VINA RESULT:    -3.771      5.888      7.682
REMARK INTER + INTRA:          -5.240
REMARK INTER:                  -4.764
REMARK INTRA:                  -0.477
REMARK UNBOUND:                -0.477
REMARK  Name = resultss/4CJN/ligands/lig_7_t0.pdb
REMARK  7 active torsions:
REMARK  status: ('A' for Active; 'I' for Inactive)
REMARK    1  A    between atoms: O1_1  and  C1_2
REMARK    2  A    between atoms: C1_2  and  C2_3
REMARK    3  A    between atoms: C3_5  and  C4_6
REMARK    4  A    between atoms: C4_6  and  O2_7
REMARK    5  A    between atoms: C5_8  and  O3_9
REMARK    6  A    between atoms: C6_10  and  O4_11
REMARK    7  A    between atoms: C7_12  and  O5_13
REMARK                            x       y       z     vdW  Elec       q    Type
REMARK                         _______ _______ _______ _____ _____    ______ ____
ROOT
ATOM      1  C2  UNL     1      28.226  -9.197 -41.113  0.00  0.00    +0.000 C 
ATOM      2  N1  UNL     1      27.211  -8.969 -42.160  0.00  0.00    +0.000 NA
ATOM      3  C3  UNL     1      25.886  -9.519 -41.812  0.00  0.00    +0.000 C 
ATOM      4  C5  UNL     1      25.358  -8.918 -40.489  0.00  0.00    +0.000 C 
ATOM      5  C6  UNL     1      26.364  -9.174 -39.353  0.00  0.00    +0.000 C 
ATOM      6  C7  UNL     1      27.758  -8.645 -39.739  0.00  0.00    +0.000 C 
ATOM      7  H5  UNL     1      27.126  -7.935 -42.301  0.00  0.00    +0.000 HD
ENDROOT
BRANCH   4   8
ATOM      8  O3  UNL     1      24.126  -9.511 -40.165  0.00  0.00    +0.000 OA
ATOM      9  H11 UNL     1      24.044 -10.330 -40.720  0.00  0.00    +0.000 HD
ENDBRANCH   4   8
BRANCH   5  10
ATOM     10  O4  UNL     1      25.918  -8.522 -38.191  0.00  0.00    +0.000 OA
ATOM     11  H13 UNL     1      26.174  -9.094 -37.420  0.00  0.00    +0.000 HD
ENDBRANCH   5  10
BRANCH   6  12
ATOM     12  O5  UNL     1      28.682  -8.970 -38.732  0.00  0.00    +0.000 OA
ATOM     13  H15 UNL     1      28.175  -9.445 -38.023  0.00  0.00    +0.000 HD
ENDBRANCH   6  12
BRANCH   1  14
ATOM     14  C1  UNL     1      28.671 -10.676 -41.065  0.00  0.00    +0.000 C 
BRANCH  14  15
ATOM     15  O1  UNL     1      30.007 -10.774 -40.646  0.00  0.00    +0.000 OA
ATOM     16  H1  UNL     1      30.564 -10.756 -41.468  0.00  0.00    +0.000 HD
ENDBRANCH  14  15
ENDBRANCH   1  14
BRANCH   3  17
ATOM     17  C4  UNL     1      24.903  -9.297 -42.979  0.00  0.00    +0.000 C 
BRANCH  17  18
ATOM     18  O2  UNL     1      23.744 -10.075 -42.829  0.00  0.00    +0.000 OA
ATOM     19  H9  UNL     1      23.663 -10.633 -43.646  0.00  0.00    +0.000 HD
ENDBRANCH  17  18
ENDBRANCH   3  17
TORSDOF 7
ENDMDL
MODEL 5
REMARK VINA RESULT:    -3.714      2.589      3.587
REMARK INTER + INTRA:          -5.167
REMARK INTER:                  -4.916
REMARK INTRA:                  -0.251
REMARK UNBOUND:                -0.477
REMARK  Name = resultss/4CJN/ligands/lig_7_t0.pdb
REMARK  7 active torsions:
REMARK  status: ('A' for Active; 'I' for Inactive)
REMARK    1  A    between atoms: O1_1  and  C1_2
REMARK    2  A    between atoms: C1_2  and  C2_3
REMARK    3  A    between atoms: C3_5  and  C4_6
REMARK    4  A    between atoms: C4_6  and  O2_7
REMARK    5  A    between atoms: C5_8  and  O3_9
REMARK    6  A    between atoms: C6_10  and  O4_11
REMARK    7  A    between atoms: C7_12  and  O5_13
REMARK                            x       y       z     vdW  Elec       q    Type
REMARK                         _______ _______ _______ _____ _____    ______ ____
ROOT
ATOM      1  C2  UNL     1      23.342  -7.349 -35.903  0.00  0.00    +0.000 C 
ATOM      2  N1  UNL     1      24.271  -8.495 -35.920  0.00  0.00    +0.000 NA
ATOM      3  C3  UNL     1      25.323  -8.403 -34.890  0.00  0.00    +0.000 C 
ATOM      4  C5  UNL     1      24.714  -8.296 -33.473  0.00  0.00    +0.000 C 
ATOM      5  C6  UNL     1      23.772  -7.081 -33.392  0.00  0.00    +0.000 C 
ATOM      6  C7  UNL     1      22.705  -7.154 -34.500  0.00  0.00    +0.000 C 
ATOM      7  H5  UNL     1      23.707  -9.363 -35.758  0.00  0.00    +0.000 HD
ENDROOT
BRANCH   4   8
ATOM      8  O3  UNL     1      25.746  -8.151 -32.530  0.00  0.00    +0.000 OA
ATOM      9  H11 UNL     1      26.442  -7.579 -32.947  0.00  0.00    +0.000 HD
ENDBRANCH   4   8
BRANCH   5  10
ATOM     10  O4  UNL     1      23.145  -7.072 -32.134  0.00  0.00    +0.000 OA
ATOM     11  H13 UNL     1      23.575  -7.783 -31.590  0.00  0.00    +0.000 HD
ENDBRANCH   5  10
BRANCH   6  12
ATOM     12  O5  UNL     1      21.915  -5.994 -34.470  0.00  0.00    +0.000 OA
ATOM     13  H15 UNL     1      22.492  -5.246 -34.775  0.00  0.00    +0.000 HD
ENDBRANCH   6  12
BRANCH   1  14
ATOM     14  C1  UNL     1      24.005  -6.071 -36.463  0.00  0.00    +0.000 C 
BRANCH  14  15
ATOM     15  O1  UNL     1      24.209  -6.186 -37.846  0.00  0.00    +0.000 OA
ATOM     16  H1  UNL     1      25.191  -6.191 -37.990  0.00  0.00    +0.000 HD
ENDBRANCH  14  15
ENDBRANCH   1  14
BRANCH   3  17
ATOM     17  C4  UNL     1      26.285  -9.601 -35.014  0.00  0.00    +0.000 C 
BRANCH  17  18
ATOM     18  O2  UNL     1      25.767 -10.744 -34.384  0.00  0.00    +0.000 OA
ATOM     19  H9  UNL     1      26.138 -10.760 -33.464  0.00  0.00    +0.000 HD
ENDBRANCH  17  18
ENDBRANCH   3  17
TORSDOF 7
ENDMDL
MODEL 6
REMARK VINA RESULT:    -3.667      2.014      4.585
REMARK INTER + INTRA:          -5.109
REMARK INTER:                  -4.653
REMARK INTRA:                  -0.455
REMARK UNBOUND:                -0.477
REMARK  Name = resultss/4CJN/ligands/lig_7_t0.pdb
REMARK  7 active torsions:
REMARK  status: ('A' for Active; 'I' for Inactive)
REMARK    1  A    between atoms: O1_1  and  C1_2
REMARK    2  A    between atoms: C1_2  and  C2_3
REMARK    3  A    between atoms: C3_5  and  C4_6
REMARK    4  A    between atoms: C4_6  and  O2_7
REMARK    5  A    between atoms: C5_8  and  O3_9
REMARK    6  A    between atoms: C6_10  and  O4_11
REMARK    7  A    between atoms: C7_12  and  O5_13
REMARK                            x       y       z     vdW  Elec       q    Type
REMARK                         _______ _______ _______ _____ _____    ______ ____
ROOT
ATOM      1  C2  UNL     1      25.415  -7.552 -36.212  0.00  0.00    +0.000 C 
ATOM      2  N1  UNL     1      25.234  -6.612 -35.089  0.00  0.00    +0.000 NA
ATOM      3  C3  UNL     1      24.355  -7.140 -34.027  0.00  0.00    +0.000 C 
ATOM      4  C5  UNL     1      24.898  -8.472 -33.459  0.00  0.00    +0.000 C 
ATOM      5  C6  UNL     1      25.058  -9.504 -34.590  0.00  0.00    +0.000 C 
ATOM      6  C7  UNL     1      25.934  -8.930 -35.720  0.00  0.00    +0.000 C 
ATOM      7  H5  UNL     1      26.180  -6.415 -34.684  0.00  0.00    +0.000 HD
ENDROOT
BRANCH   4   8
ATOM      8  O3  UNL     1      24.003  -8.969 -32.496  0.00  0.00    +0.000 OA
ATOM      9  H11 UNL     1      23.535  -8.186 -32.105  0.00  0.00    +0.000 HD
ENDBRANCH   4   8
BRANCH   5  10
ATOM     10  O4  UNL     1      25.658 -10.663 -34.071  0.00  0.00    +0.000 OA
ATOM     11  H13 UNL     1      25.681 -11.332 -34.805  0.00  0.00    +0.000 HD
ENDBRANCH   5  10
BRANCH   6  12
ATOM     12  O5  UNL     1      25.991  -9.847 -36.783  0.00  0.00    +0.000 OA
ATOM     13  H15 UNL     1      25.985  -9.315 -37.620  0.00  0.00    +0.000 HD
ENDBRANCH   6  12
BRANCH   1  14
ATOM     14  C1  UNL     1      24.144  -7.646 -37.085  0.00  0.00    +0.000 C 
BRANCH  14  15
ATOM     15  O1  UNL     1      24.436  -8.252 -38.316  0.00  0.00    +0.000 OA
ATOM     16  H1  UNL     1      23.695  -8.016 -38.933  0.00  0.00    +0.000 HD
ENDBRANCH  14  15
ENDBRANCH   1  14
BRANCH   3  17
ATOM     17  C4  UNL     1      24.167  -6.078 -32.926  0.00  0.00    +0.000 C 
BRANCH  17  18
ATOM     18  O2  UNL     1      23.068  -6.378 -32.105  0.00  0.00    +0.000 OA
ATOM     19  H9  UNL     1      22.338  -5.755 -32.360  0.00  0.00    +0.000 HD
ENDBRANCH  17  18
ENDBRANCH   3  17
TORSDOF 7
ENDMDL
MODEL 7
REMARK VINA RESULT:    -3.616      1.527      1.965
REMARK INTER + INTRA:          -5.044
REMARK INTER:                  -4.557
REMARK INTRA:                  -0.487
REMARK UNBOUND:                -0.477
REMARK  Name = resultss/4CJN/ligands/lig_7_t0.pdb
REMARK  7 active torsions:
REMARK  status: ('A' for Active; 'I' for Inactive)
REMARK    1  A    between atoms: O1_1  and  C1_2
REMARK    2  A    between atoms: C1_2  and  C2_3
REMARK    3  A    between atoms: C3_5  and  C4_6
REMARK    4  A    between atoms: C4_6  and  O2_7
REMARK    5  A    between atoms: C5_8  and  O3_9
REMARK    6  A    between atoms: C6_10  and  O4_11
REMARK    7  A    between atoms: C7_12  and  O5_13
REMARK                            x       y       z     vdW  Elec       q    Type
REMARK                         _______ _______ _______ _____ _____    ______ ____
ROOT
ATOM      1  C2  UNL     1      25.927  -6.993 -34.256  0.00  0.00    +0.000 C 
ATOM      2  N1  UNL     1      26.388  -6.870 -35.652  0.00  0.00    +0.000 NA
ATOM      3  C3  UNL     1      27.272  -7.975 -36.071  0.00  0.00    +0.000 C 
ATOM      4  C5  UNL     1      26.573  -9.345 -35.912  0.00  0.00    +0.000 C 
ATOM      5  C6  UNL     1      26.116  -9.541 -34.456  0.00  0.00    +0.000 C 
ATOM      6  C7  UNL     1      25.235  -8.360 -34.005  0.00  0.00    +0.000 C 
ATOM      7  H5  UNL     1      25.540  -6.858 -36.267  0.00  0.00    +0.000 HD
ENDROOT
BRANCH   4   8
ATOM      8  O3  UNL     1      27.467 -10.370 -36.264  0.00  0.00    +0.000 OA
ATOM      9  H11 UNL     1      27.050 -11.226 -35.987  0.00  0.00    +0.000 HD
ENDBRANCH   4   8
BRANCH   5  10
ATOM     10  O4  UNL     1      25.385 -10.737 -34.362  0.00  0.00    +0.000 OA
ATOM     11  H13 UNL     1      24.485 -10.557 -34.741  0.00  0.00    +0.000 HD
ENDBRANCH   5  10
BRANCH   6  12
ATOM     12  O5  UNL     1      24.906  -8.509 -32.648  0.00  0.00    +0.000 OA
ATOM     13  H15 UNL     1      24.583  -7.625 -32.334  0.00  0.00    +0.000 HD
ENDBRANCH   6  12
BRANCH   1  14
ATOM     14  C1  UNL     1      27.061  -6.683 -33.254  0.00  0.00    +0.000 C 
BRANCH  14  15
ATOM     15  O1  UNL     1      26.531  -6.326 -32.005  0.00  0.00    +0.000 OA
ATOM     16  H1  UNL     1      26.819  -5.392 -31.829  0.00  0.00    +0.000 HD
ENDBRANCH  14  15
ENDBRANCH   1  14
BRANCH   3  17
ATOM     17  C4  UNL     1      27.758  -7.740 -37.515  0.00  0.00    +0.000 C 
BRANCH  17  18
ATOM     18  O2  UNL     1      28.925  -8.471 -37.789  0.00  0.00    +0.000 OA
ATOM     19  H9  UNL     1      28.753  -9.407 -37.510  0.00  0.00    +0.000 HD
ENDBRANCH  17  18
ENDBRANCH   3  17
TORSDOF 7
ENDMDL
MODEL 8
REMARK VINA RESULT:    -3.572      2.141      3.078
REMARK INTER + INTRA:          -4.989
REMARK INTER:                  -4.511
REMARK INTRA:                  -0.478
REMARK UNBOUND:                -0.477
REMARK  Name = resultss/4CJN/ligands/lig_7_t0.pdb
REMARK  7 active torsions:
REMARK  status: ('A' for Active; 'I' for Inactive)
REMARK    1  A    between atoms: O1_1  and  C1_2
REMARK    2  A    between atoms: C1_2  and  C2_3
REMARK    3  A    between atoms: C3_5  and  C4_6
REMARK    4  A    between atoms: C4_6  and  O2_7
REMARK    5  A    between atoms: C5_8  and  O3_9
REMARK    6  A    between atoms: C6_10  and  O4_11
REMARK    7  A    between atoms: C7_12  and  O5_13
REMARK                            x       y       z     vdW  Elec       q    Type
REMARK                         _______ _______ _______ _____ _____    ______ ____
ROOT
ATOM      1  C2  UNL     1      27.253  -8.354 -34.585  0.00  0.00    +0.000 C 
ATOM      2  N1  UNL     1      26.646  -8.112 -35.908  0.00  0.00    +0.000 NA
ATOM      3  C3  UNL     1      25.257  -8.602 -36.007  0.00  0.00    +0.000 C 
ATOM      4  C5  UNL     1      24.354  -7.952 -34.935  0.00  0.00    +0.000 C 
ATOM      5  C6  UNL     1      24.922  -8.220 -33.530  0.00  0.00    +0.000 C 
ATOM      6  C7  UNL     1      26.387  -7.753 -33.445  0.00  0.00    +0.000 C 
ATOM      7  H5  UNL     1      26.657  -7.078 -36.078  0.00  0.00    +0.000 HD
ENDROOT
BRANCH   4   8
ATOM      8  O3  UNL     1      23.059  -8.489 -35.026  0.00  0.00    +0.000 OA
ATOM      9  H11 UNL     1      22.917  -8.744 -35.975  0.00  0.00    +0.000 HD
ENDBRANCH   4   8
BRANCH   5  10
ATOM     10  O4  UNL     1      24.150  -7.525 -32.583  0.00  0.00    +0.000 OA
ATOM     11  H13 UNL     1      24.522  -7.744 -31.689  0.00  0.00    +0.000 HD
ENDBRANCH   5  10
BRANCH   6  12
ATOM     12  O5  UNL     1      26.917  -8.091 -32.188  0.00  0.00    +0.000 OA
ATOM     13  H15 UNL     1      27.403  -7.291 -31.858  0.00  0.00    +0.000 HD
ENDBRANCH   6  12
BRANCH   1  14
ATOM     14  C1  UNL     1      27.594  -9.847 -34.381  0.00  0.00    +0.000 C 
BRANCH  14  15
ATOM     15  O1  UNL     1      28.774  -9.985 -33.635  0.00  0.00    +0.000 OA
ATOM     16  H1  UNL     1      29.148 -10.877 -33.858  0.00  0.00    +0.000 HD
ENDBRANCH  14  15
ENDBRANCH   1  14
BRANCH   3  17
ATOM     17  C4  UNL     1      24.720  -8.369 -37.433  0.00  0.00    +0.000 C 
BRANCH  17  18
ATOM     18  O2  UNL     1      23.742  -7.361 -37.455  0.00  0.00    +0.000 OA
ATOM     19  H9  UNL     1      23.413  -7.257 -36.524  0.00  0.00    +0.000 HD
ENDBRANCH  17  18
ENDBRANCH   3  17
TORSDOF 7
ENDMDL
MODEL 9
REMARK VINA RESULT:    -3.475      7.448      9.044
REMARK INTER + INTRA:          -4.865
REMARK INTER:                  -4.392
REMARK INTRA:                  -0.473
REMARK UNBOUND:                -0.477
REMARK  Name = resultss/4CJN/ligands/lig_7_t0.pdb
REMARK  7 active torsions:
REMARK  status: ('A' for Active; 'I' for Inactive)
REMARK    1  A    between atoms: O1_1  and  C1_2
REMARK    2  A    between atoms: C1_2  and  C2_3
REMARK    3  A    between atoms: C3_5  and  C4_6
REMARK    4  A    between atoms: C4_6  and  O2_7
REMARK    5  A    between atoms: C5_8  and  O3_9
REMARK    6  A    between atoms: C6_10  and  O4_11
REMARK    7  A    between atoms: C7_12  and  O5_13
REMARK                            x       y       z     vdW  Elec       q    Type
REMARK                         _______ _______ _______ _____ _____    ______ ____
ROOT
ATOM      1  C2  UNL     1      26.982  -8.072 -42.034  0.00  0.00    +0.000 C 
ATOM      2  N1  UNL     1      26.169  -7.328 -43.015  0.00  0.00    +0.000 NA
ATOM      3  C3  UNL     1      24.992  -8.085 -43.485  0.00  0.00    +0.000 C 
ATOM      4  C5  UNL     1      24.077  -8.488 -42.307  0.00  0.00    +0.000 C 
ATOM      5  C6  UNL     1      24.871  -9.311 -41.277  0.00  0.00    +0.000 C 
ATOM      6  C7  UNL     1      26.126  -8.540 -40.826  0.00  0.00    +0.000 C 
ATOM      7  H5  UNL     1      25.847  -6.444 -42.555  0.00  0.00    +0.000 HD
ENDROOT
BRANCH   4   8
ATOM      8  O3  UNL     1      23.003  -9.255 -42.790  0.00  0.00    +0.000 OA
ATOM      9  H11 UNL     1      22.175  -8.874 -42.399  0.00  0.00    +0.000 HD
ENDBRANCH   4   8
BRANCH   5  10
ATOM     10  O4  UNL     1      24.051  -9.568 -40.165  0.00  0.00    +0.000 OA
ATOM     11  H13 UNL     1      24.580  -9.340 -39.356  0.00  0.00    +0.000 HD
ENDBRANCH   5  10
BRANCH   6  12
ATOM     12  O5  UNL     1      26.887  -9.343 -39.960  0.00  0.00    +0.000 OA
ATOM     13  H15 UNL     1      26.378 -10.186 -39.832  0.00  0.00    +0.000 HD
ENDBRANCH   6  12
BRANCH   1  14
ATOM     14  C1  UNL     1      27.780  -9.213 -42.704  0.00  0.00    +0.000 C 
BRANCH  14  15
ATOM     15  O1  UNL     1      28.952  -9.485 -41.982  0.00  0.00    +0.000 OA
ATOM     16  H1  UNL     1      28.699  -9.490 -41.022  0.00  0.00    +0.000 HD
ENDBRANCH  14  15
ENDBRANCH   1  14
BRANCH   3  17
ATOM     17  C4  UNL     1      24.235  -7.267 -44.550  0.00  0.00    +0.000 C 
BRANCH  17  18
ATOM     18  O2  UNL     1      23.762  -8.087 -45.587  0.00  0.00    +0.000 OA
ATOM     19  H9  UNL     1      23.648  -8.997 -45.207  0.00  0.00    +0.000 HD
ENDBRANCH  17  18
ENDBRANCH   3  17
TORSDOF 7
ENDMDL
