MODEL 1
REMARK VINA RESULT:    -5.420      0.000      0.000
REMARK INTER + INTRA:          -6.803
REMARK INTER:                  -6.528
REMARK INTRA:                  -0.274
REMARK UNBOUND:                -0.274
REMARK  Name = resultss/4CJN/ligands/lig_302_t1.pdb
REMARK  7 active torsions:
REMARK  status: ('A' for Active; 'I' for Inactive)
REMARK    1  A    between atoms: C1_1  and  O1_2
REMARK    2  A    between atoms: O1_2  and  C2_3
REMARK    3  A    between atoms: C4_5  and  O2_6
REMARK    4  A    between atoms: C8_11  and  O4_12
REMARK    5  A    between atoms: O4_12  and  C9_13
REMARK    6  A    between atoms: C15_21  and  O7_22
REMARK    7  A    between atoms: O7_22  and  C16_23
REMARK                            x       y       z     vdW  Elec       q    Type
REMARK                         _______ _______ _______ _____ _____    ______ ____
ROOT
ATOM      1  C2  UNL     1      25.020  -8.601 -34.950  0.00  0.00    +0.000 A 
ATOM      2  C3  UNL     1      24.118  -7.784 -35.647  0.00  0.00    +0.000 A 
ATOM      3  C4  UNL     1      24.164  -7.679 -37.037  0.00  0.00    +0.000 A 
ATOM      4  C5  UNL     1      25.195  -8.338 -37.763  0.00  0.00    +0.000 A 
ATOM      5  C6  UNL     1      25.417  -8.161 -39.152  0.00  0.00    +0.000 A 
ATOM      6  O3  UNL     1      24.762  -7.288 -39.782  0.00  0.00    +0.000 OA
ATOM      7  C7  UNL     1      26.410  -8.924 -39.825  0.00  0.00    +0.000 A 
ATOM      8  C8  UNL     1      26.609  -8.831 -41.177  0.00  0.00    +0.000 C 
ATOM      9  C10 UNL     1      27.684  -9.638 -41.889  0.00  0.00    +0.000 C 
ATOM     10  C11 UNL     1      28.463 -10.528 -40.978  0.00  0.00    +0.000 C 
ATOM     11  O5  UNL     1      29.377 -11.258 -41.445  0.00  0.00    +0.000 OA
ATOM     12  C12 UNL     1      28.170 -10.552 -39.549  0.00  0.00    +0.000 C 
ATOM     13  C13 UNL     1      27.204  -9.790 -39.029  0.00  0.00    +0.000 A 
ATOM     14  O6  UNL     1      27.011  -9.864 -37.721  0.00  0.00    +0.000 OA
ATOM     15  C14 UNL     1      26.082  -9.191 -37.060  0.00  0.00    +0.000 A 
ATOM     16  C15 UNL     1      25.991  -9.323 -35.652  0.00  0.00    +0.000 A 
ENDROOT
BRANCH   1  18
ATOM     17  C1  UNL     1      23.786  -8.933 -32.795  0.00  0.00    +0.000 C 
ATOM     18  O1  UNL     1      24.975  -8.731 -33.552  0.00  0.00    +0.000 OA
ENDBRANCH   1  18
BRANCH   3  19
ATOM     19  O2  UNL     1      23.140  -6.941 -37.638  0.00  0.00    +0.000 OA
ATOM     20  H5  UNL     1      22.276  -6.689 -37.180  0.00  0.00    +0.000 HD
ENDBRANCH   3  19
BRANCH   8  21
ATOM     21  O4  UNL     1      25.800  -7.975 -41.946  0.00  0.00    +0.000 OA
ATOM     22  C9  UNL     1      25.202  -8.329 -43.189  0.00  0.00    +0.000 C 
ENDBRANCH   8  21
BRANCH  16  23
ATOM     23  O7  UNL     1      26.841 -10.147 -34.887  0.00  0.00    +0.000 OA
ATOM     24  C16 UNL     1      28.142  -9.818 -34.410  0.00  0.00    +0.000 C 
ENDBRANCH  16  23
TORSDOF 4
ENDMDL
MODEL 2
REMARK VINA RESULT:    -5.353      1.340      5.985
REMARK INTER + INTRA:          -6.723
REMARK INTER:                  -6.402
REMARK INTRA:                  -0.321
REMARK UNBOUND:                -0.274
REMARK  Name = resultss/4CJN/ligands/lig_302_t1.pdb
REMARK  7 active torsions:
REMARK  status: ('A' for Active; 'I' for Inactive)
REMARK    1  A    between atoms: C1_1  and  O1_2
REMARK    2  A    between atoms: O1_2  and  C2_3
REMARK    3  A    between atoms: C4_5  and  O2_6
REMARK    4  A    between atoms: C8_11  and  O4_12
REMARK    5  A    between atoms: O4_12  and  C9_13
REMARK    6  A    between atoms: C15_21  and  O7_22
REMARK    7  A    between atoms: O7_22  and  C16_23
REMARK                            x       y       z     vdW  Elec       q    Type
REMARK                         _______ _______ _______ _____ _____    ______ ____
ROOT
ATOM      1  C2  UNL     1      26.568  -9.173 -41.438  0.00  0.00    +0.000 A 
ATOM      2  C3  UNL     1      25.351  -8.528 -41.178  0.00  0.00    +0.000 A 
ATOM      3  C4  UNL     1      24.948  -8.245 -39.873  0.00  0.00    +0.000 A 
ATOM      4  C5  UNL     1      25.736  -8.693 -38.776  0.00  0.00    +0.000 A 
ATOM      5  C6  UNL     1      25.328  -8.594 -37.422  0.00  0.00    +0.000 A 
ATOM      6  O3  UNL     1      24.161  -8.206 -37.148  0.00  0.00    +0.000 OA
ATOM      7  C7  UNL     1      26.210  -8.982 -36.375  0.00  0.00    +0.000 A 
ATOM      8  C8  UNL     1      25.879  -8.839 -35.054  0.00  0.00    +0.000 C 
ATOM      9  C10 UNL     1      26.820  -9.270 -33.939  0.00  0.00    +0.000 C 
ATOM     10  C11 UNL     1      28.111  -9.834 -34.432  0.00  0.00    +0.000 C 
ATOM     11  O5  UNL     1      28.983 -10.220 -33.609  0.00  0.00    +0.000 OA
ATOM     12  C12 UNL     1      28.363  -9.943 -35.865  0.00  0.00    +0.000 C 
ATOM     13  C13 UNL     1      27.457  -9.539 -36.759  0.00  0.00    +0.000 A 
ATOM     14  O6  UNL     1      27.762  -9.683 -38.040  0.00  0.00    +0.000 OA
ATOM     15  C14 UNL     1      26.982  -9.313 -39.043  0.00  0.00    +0.000 A 
ATOM     16  C15 UNL     1      27.398  -9.550 -40.377  0.00  0.00    +0.000 A 
ENDROOT
BRANCH   1  18
ATOM     17  C1  UNL     1      27.470  -8.471 -43.668  0.00  0.00    +0.000 C 
ATOM     18  O1  UNL     1      26.996  -9.448 -42.748  0.00  0.00    +0.000 OA
ENDBRANCH   1  18
BRANCH   3  19
ATOM     19  O2  UNL     1      23.783  -7.485 -39.733  0.00  0.00    +0.000 OA
ATOM     20  H5  UNL     1      23.746  -6.575 -39.298  0.00  0.00    +0.000 HD
ENDBRANCH   3  19
BRANCH   8  21
ATOM     21  O4  UNL     1      24.642  -8.271 -34.699  0.00  0.00    +0.000 OA
ATOM     22  C9  UNL     1      23.868  -8.662 -33.570  0.00  0.00    +0.000 C 
ENDBRANCH   8  21
BRANCH  16  23
ATOM     23  O7  UNL     1      28.619 -10.165 -40.718  0.00  0.00    +0.000 OA
ATOM     24  C16 UNL     1      29.898  -9.541 -40.777  0.00  0.00    +0.000 C 
ENDBRANCH  16  23
TORSDOF 4
ENDMDL
MODEL 3
REMARK VINA RESULT:    -5.308      1.286      6.773
REMARK INTER + INTRA:          -6.668
REMARK INTER:                  -6.357
REMARK INTRA:                  -0.311
REMARK UNBOUND:                -0.274
REMARK  Name = resultss/4CJN/ligands/lig_302_t1.pdb
REMARK  7 active torsions:
REMARK  status: ('A' for Active; 'I' for Inactive)
REMARK    1  A    between atoms: C1_1  and  O1_2
REMARK    2  A    between atoms: O1_2  and  C2_3
REMARK    3  A    between atoms: C4_5  and  O2_6
REMARK    4  A    between atoms: C8_11  and  O4_12
REMARK    5  A    between atoms: O4_12  and  C9_13
REMARK    6  A    between atoms: C15_21  and  O7_22
REMARK    7  A    between atoms: O7_22  and  C16_23
REMARK                            x       y       z     vdW  Elec       q    Type
REMARK                         _______ _______ _______ _____ _____    ______ ____
ROOT
ATOM      1  C2  UNL     1      25.948  -9.143 -41.675  0.00  0.00    +0.000 A 
ATOM      2  C3  UNL     1      27.133  -9.862 -41.465  0.00  0.00    +0.000 A 
ATOM      3  C4  UNL     1      27.574 -10.166 -40.178  0.00  0.00    +0.000 A 
ATOM      4  C5  UNL     1      26.865  -9.667 -39.049  0.00  0.00    +0.000 A 
ATOM      5  C6  UNL     1      27.325  -9.788 -37.714  0.00  0.00    +0.000 A 
ATOM      6  O3  UNL     1      28.477 -10.248 -37.490  0.00  0.00    +0.000 OA
ATOM      7  C7  UNL     1      26.516  -9.345 -36.632  0.00  0.00    +0.000 A 
ATOM      8  C8  UNL     1      26.895  -9.505 -35.325  0.00  0.00    +0.000 C 
ATOM      9  C10 UNL     1      26.033  -9.014 -34.173  0.00  0.00    +0.000 C 
ATOM     10  C11 UNL     1      24.759  -8.372 -34.611  0.00  0.00    +0.000 C 
ATOM     11  O5  UNL     1      23.949  -7.932 -33.753  0.00  0.00    +0.000 OA
ATOM     12  C12 UNL     1      24.450  -8.251 -36.033  0.00  0.00    +0.000 C 
ATOM     13  C13 UNL     1      25.290  -8.713 -36.963  0.00  0.00    +0.000 A 
ATOM     14  O6  UNL     1      24.939  -8.552 -38.230  0.00  0.00    +0.000 OA
ATOM     15  C14 UNL     1      25.649  -8.972 -39.265  0.00  0.00    +0.000 A 
ATOM     16  C15 UNL     1      25.191  -8.713 -40.580  0.00  0.00    +0.000 A 
ENDROOT
BRANCH   1  18
ATOM     17  C1  UNL     1      25.965  -7.781 -43.778  0.00  0.00    +0.000 C 
ATOM     18  O1  UNL     1      25.480  -8.845 -42.966  0.00  0.00    +0.000 OA
ENDBRANCH   1  18
BRANCH   3  19
ATOM     19  O2  UNL     1      28.696 -10.996 -40.086  0.00  0.00    +0.000 OA
ATOM     20  H5  UNL     1      28.883 -11.614 -39.309  0.00  0.00    +0.000 HD
ENDBRANCH   3  19
BRANCH   8  21
ATOM     21  O4  UNL     1      28.109 -10.147 -35.023  0.00  0.00    +0.000 OA
ATOM     22  C9  UNL     1      28.982  -9.767 -33.964  0.00  0.00    +0.000 C 
ENDBRANCH   8  21
BRANCH  16  23
ATOM     23  O7  UNL     1      23.995  -8.024 -40.870  0.00  0.00    +0.000 OA
ATOM     24  C16 UNL     1      23.807  -6.613 -40.876  0.00  0.00    +0.000 C 
ENDBRANCH  16  23
TORSDOF 4
ENDMDL
MODEL 4
REMARK VINA RESULT:    -5.286      1.194      3.517
REMARK INTER + INTRA:          -6.642
REMARK INTER:                  -6.356
REMARK INTRA:                  -0.286
REMARK UNBOUND:                -0.274
REMARK  Name = resultss/4CJN/ligands/lig_302_t1.pdb
REMARK  7 active torsions:
REMARK  status: ('A' for Active; 'I' for Inactive)
REMARK    1  A    between atoms: C1_1  and  O1_2
REMARK    2  A    between atoms: O1_2  and  C2_3
REMARK    3  A    between atoms: C4_5  and  O2_6
REMARK    4  A    between atoms: C8_11  and  O4_12
REMARK    5  A    between atoms: O4_12  and  C9_13
REMARK    6  A    between atoms: C15_21  and  O7_22
REMARK    7  A    between atoms: O7_22  and  C16_23
REMARK                            x       y       z     vdW  Elec       q    Type
REMARK                         _______ _______ _______ _____ _____    ______ ____
ROOT
ATOM      1  C2  UNL     1      25.008  -8.452 -34.829  0.00  0.00    +0.000 A 
ATOM      2  C3  UNL     1      26.235  -9.096 -34.622  0.00  0.00    +0.000 A 
ATOM      3  C4  UNL     1      27.029  -9.501 -35.694  0.00  0.00    +0.000 A 
ATOM      4  C5  UNL     1      26.554  -9.341 -37.027  0.00  0.00    +0.000 A 
ATOM      5  C6  UNL     1      27.214  -9.865 -38.166  0.00  0.00    +0.000 A 
ATOM      6  O3  UNL     1      28.212 -10.620 -38.018  0.00  0.00    +0.000 OA
ATOM      7  C7  UNL     1      26.725  -9.586 -39.473  0.00  0.00    +0.000 A 
ATOM      8  C8  UNL     1      27.373 -10.016 -40.600  0.00  0.00    +0.000 C 
ATOM      9  C10 UNL     1      26.837  -9.728 -41.994  0.00  0.00    +0.000 C 
ATOM     10  C11 UNL     1      25.573  -8.934 -41.995  0.00  0.00    +0.000 C 
ATOM     11  O5  UNL     1      25.030  -8.619 -43.086  0.00  0.00    +0.000 OA
ATOM     12  C12 UNL     1      24.963  -8.524 -40.734  0.00  0.00    +0.000 C 
ATOM     13  C13 UNL     1      25.521  -8.842 -39.562  0.00  0.00    +0.000 A 
ATOM     14  O6  UNL     1      24.897  -8.441 -38.465  0.00  0.00    +0.000 OA
ATOM     15  C14 UNL     1      25.330  -8.657 -37.233  0.00  0.00    +0.000 A 
ATOM     16  C15 UNL     1      24.559  -8.211 -36.131  0.00  0.00    +0.000 A 
ENDROOT
BRANCH   1  18
ATOM     17  C1  UNL     1      23.470  -8.886 -32.899  0.00  0.00    +0.000 C 
ATOM     18  O1  UNL     1      24.206  -8.022 -33.758  0.00  0.00    +0.000 OA
ENDBRANCH   1  18
BRANCH   3  19
ATOM     19  O2  UNL     1      28.289 -10.016 -35.376  0.00  0.00    +0.000 OA
ATOM     20  H5  UNL     1      28.451 -10.738 -34.689  0.00  0.00    +0.000 HD
ENDBRANCH   3  19
BRANCH   8  21
ATOM     21  O4  UNL     1      28.573 -10.740 -40.484  0.00  0.00    +0.000 OA
ATOM     22  C9  UNL     1      29.559 -10.838 -41.507  0.00  0.00    +0.000 C 
ENDBRANCH   8  21
BRANCH  16  23
ATOM     23  O7  UNL     1      23.332  -7.529 -36.261  0.00  0.00    +0.000 OA
ATOM     24  C16 UNL     1      23.154  -6.141 -36.522  0.00  0.00    +0.000 C 
ENDBRANCH  16  23
TORSDOF 4
ENDMDL
MODEL 5
REMARK VINA RESULT:    -5.158      2.381      3.603
REMARK INTER + INTRA:          -6.488
REMARK INTER:                  -6.189
REMARK INTRA:                  -0.299
REMARK UNBOUND:                -0.274
REMARK  Name = resultss/4CJN/ligands/lig_302_t1.pdb
REMARK  7 active torsions:
REMARK  status: ('A' for Active; 'I' for Inactive)
REMARK    1  A    between atoms: C1_1  and  O1_2
REMARK    2  A    between atoms: O1_2  and  C2_3
REMARK    3  A    between atoms: C4_5  and  O2_6
REMARK    4  A    between atoms: C8_11  and  O4_12
REMARK    5  A    between atoms: O4_12  and  C9_13
REMARK    6  A    between atoms: C15_21  and  O7_22
REMARK    7  A    between atoms: O7_22  and  C16_23
REMARK                            x       y       z     vdW  Elec       q    Type
REMARK                         _______ _______ _______ _____ _____    ______ ____
ROOT
ATOM      1  C2  UNL     1      29.486  -9.670 -34.427  0.00  0.00    +0.000 A 
ATOM      2  C3  UNL     1      28.084  -9.683 -34.412  0.00  0.00    +0.000 A 
ATOM      3  C4  UNL     1      27.351  -9.773 -35.594  0.00  0.00    +0.000 A 
ATOM      4  C5  UNL     1      28.024  -9.762 -36.848  0.00  0.00    +0.000 A 
ATOM      5  C6  UNL     1      27.359  -9.688 -38.098  0.00  0.00    +0.000 A 
ATOM      6  O3  UNL     1      26.114  -9.498 -38.133  0.00  0.00    +0.000 OA
ATOM      7  C7  UNL     1      28.097  -9.774 -39.311  0.00  0.00    +0.000 A 
ATOM      8  C8  UNL     1      27.485  -9.774 -40.537  0.00  0.00    +0.000 C 
ATOM      9  C10 UNL     1      28.281  -9.850 -41.831  0.00  0.00    +0.000 C 
ATOM     10  C11 UNL     1      29.756  -9.938 -41.621  0.00  0.00    +0.000 C 
ATOM     11  O5  UNL     1      30.528 -10.016 -42.613  0.00  0.00    +0.000 OA
ATOM     12  C12 UNL     1      30.306  -9.929 -40.269  0.00  0.00    +0.000 C 
ATOM     13  C13 UNL     1      29.509  -9.851 -39.201  0.00  0.00    +0.000 A 
ATOM     14  O6  UNL     1      30.090  -9.838 -38.010  0.00  0.00    +0.000 OA
ATOM     15  C14 UNL     1      29.441  -9.785 -36.858  0.00  0.00    +0.000 A 
ATOM     16  C15 UNL     1      30.171  -9.741 -35.645  0.00  0.00    +0.000 A 
ENDROOT
BRANCH   1  18
ATOM     17  C1  UNL     1      30.502  -8.400 -32.521  0.00  0.00    +0.000 C 
ATOM     18  O1  UNL     1      30.239  -9.598 -33.243  0.00  0.00    +0.000 OA
ENDBRANCH   1  18
BRANCH   3  19
ATOM     19  O2  UNL     1      25.966  -9.910 -35.458  0.00  0.00    +0.000 OA
ATOM     20  H5  UNL     1      25.341  -9.154 -35.216  0.00  0.00    +0.000 HD
ENDBRANCH   3  19
BRANCH   8  21
ATOM     21  O4  UNL     1      26.083  -9.711 -40.620  0.00  0.00    +0.000 OA
ATOM     22  C9  UNL     1      25.335  -9.893 -41.818  0.00  0.00    +0.000 C 
ENDBRANCH   8  21
BRANCH  16  23
ATOM     23  O7  UNL     1      31.579  -9.755 -35.578  0.00  0.00    +0.000 OA
ATOM     24  C16 UNL     1      32.450  -8.642 -35.757  0.00  0.00    +0.000 C 
ENDBRANCH  16  23
TORSDOF 4
ENDMDL
MODEL 6
REMARK VINA RESULT:    -4.919      1.905      7.143
REMARK INTER + INTRA:          -6.199
REMARK INTER:                  -5.913
REMARK INTRA:                  -0.286
REMARK UNBOUND:                -0.274
REMARK  Name = resultss/4CJN/ligands/lig_302_t1.pdb
REMARK  7 active torsions:
REMARK  status: ('A' for Active; 'I' for Inactive)
REMARK    1  A    between atoms: C1_1  and  O1_2
REMARK    2  A    between atoms: O1_2  and  C2_3
REMARK    3  A    between atoms: C4_5  and  O2_6
REMARK    4  A    between atoms: C8_11  and  O4_12
REMARK    5  A    between atoms: O4_12  and  C9_13
REMARK    6  A    between atoms: C15_21  and  O7_22
REMARK    7  A    between atoms: O7_22  and  C16_23
REMARK                            x       y       z     vdW  Elec       q    Type
REMARK                         _______ _______ _______ _____ _____    ______ ____
ROOT
ATOM      1  C2  UNL     1      28.765  -9.707 -40.933  0.00  0.00    +0.000 A 
ATOM      2  C3  UNL     1      29.998  -9.962 -40.318  0.00  0.00    +0.000 A 
ATOM      3  C4  UNL     1      30.117 -10.006 -38.929  0.00  0.00    +0.000 A 
ATOM      4  C5  UNL     1      28.993  -9.700 -38.112  0.00  0.00    +0.000 A 
ATOM      5  C6  UNL     1      29.058  -9.562 -36.702  0.00  0.00    +0.000 A 
ATOM      6  O3  UNL     1      30.177  -9.584 -36.124  0.00  0.00    +0.000 OA
ATOM      7  C7  UNL     1      27.873  -9.346 -35.946  0.00  0.00    +0.000 A 
ATOM      8  C8  UNL     1      27.885  -9.275 -34.578  0.00  0.00    +0.000 C 
ATOM      9  C10 UNL     1      26.618  -9.027 -33.775  0.00  0.00    +0.000 C 
ATOM     10  C11 UNL     1      25.394  -8.890 -34.619  0.00  0.00    +0.000 C 
ATOM     11  O5  UNL     1      24.275  -8.693 -34.075  0.00  0.00    +0.000 OA
ATOM     12  C12 UNL     1      25.491  -8.982 -36.072  0.00  0.00    +0.000 C 
ATOM     13  C13 UNL     1      26.664  -9.195 -36.673  0.00  0.00    +0.000 A 
ATOM     14  O6  UNL     1      26.666  -9.254 -37.996  0.00  0.00    +0.000 OA
ATOM     15  C14 UNL     1      27.740  -9.478 -38.737  0.00  0.00    +0.000 A 
ATOM     16  C15 UNL     1      27.628  -9.485 -40.149  0.00  0.00    +0.000 A 
ENDROOT
BRANCH   1  18
ATOM     17  C1  UNL     1      29.100  -8.632 -43.171  0.00  0.00    +0.000 C 
ATOM     18  O1  UNL     1      28.626  -9.678 -42.331  0.00  0.00    +0.000 OA
ENDBRANCH   1  18
BRANCH   3  19
ATOM     19  O2  UNL     1      31.362 -10.395 -38.423  0.00  0.00    +0.000 OA
ATOM     20  H5  UNL     1      32.168 -10.602 -38.995  0.00  0.00    +0.000 HD
ENDBRANCH   3  19
BRANCH   8  21
ATOM     21  O4  UNL     1      29.094  -9.441 -33.879  0.00  0.00    +0.000 OA
ATOM     22  C9  UNL     1      29.370  -8.887 -32.597  0.00  0.00    +0.000 C 
ENDBRANCH   8  21
BRANCH  16  23
ATOM     23  O7  UNL     1      26.418  -9.268 -40.838  0.00  0.00    +0.000 OA
ATOM     24  C16 UNL     1      25.434 -10.246 -41.158  0.00  0.00    +0.000 C 
ENDBRANCH  16  23
TORSDOF 4
ENDMDL
MODEL 7
REMARK VINA RESULT:    -4.881      1.832      4.025
REMARK INTER + INTRA:          -6.154
REMARK INTER:                  -5.939
REMARK INTRA:                  -0.214
REMARK UNBOUND:                -0.274
REMARK  Name = resultss/4CJN/ligands/lig_302_t1.pdb
REMARK  7 active torsions:
REMARK  status: ('A' for Active; 'I' for Inactive)
REMARK    1  A    between atoms: C1_1  and  O1_2
REMARK    2  A    between atoms: O1_2  and  C2_3
REMARK    3  A    between atoms: C4_5  and  O2_6
REMARK    4  A    between atoms: C8_11  and  O4_12
REMARK    5  A    between atoms: O4_12  and  C9_13
REMARK    6  A    between atoms: C15_21  and  O7_22
REMARK    7  A    between atoms: O7_22  and  C16_23
REMARK                            x       y       z     vdW  Elec       q    Type
REMARK                         _______ _______ _______ _____ _____    ______ ____
ROOT
ATOM      1  C2  UNL     1      28.279  -9.774 -35.487  0.00  0.00    +0.000 A 
ATOM      2  C3  UNL     1      29.516  -9.998 -36.108  0.00  0.00    +0.000 A 
ATOM      3  C4  UNL     1      29.644  -9.962 -37.496  0.00  0.00    +0.000 A 
ATOM      4  C5  UNL     1      28.489  -9.785 -38.310  0.00  0.00    +0.000 A 
ATOM      5  C6  UNL     1      28.497  -9.895 -39.723  0.00  0.00    +0.000 A 
ATOM      6  O3  UNL     1      29.539 -10.290 -40.312  0.00  0.00    +0.000 OA
ATOM      7  C7  UNL     1      27.322  -9.614 -40.473  0.00  0.00    +0.000 A 
ATOM      8  C8  UNL     1      27.307  -9.643 -41.842  0.00  0.00    +0.000 C 
ATOM      9  C10 UNL     1      26.043  -9.358 -42.638  0.00  0.00    +0.000 C 
ATOM     10  C11 UNL     1      24.861  -9.036 -41.786  0.00  0.00    +0.000 C 
ATOM     11  O5  UNL     1      23.753  -8.769 -42.322  0.00  0.00    +0.000 OA
ATOM     12  C12 UNL     1      24.984  -9.032 -40.331  0.00  0.00    +0.000 C 
ATOM     13  C13 UNL     1      26.148  -9.307 -39.737  0.00  0.00    +0.000 A 
ATOM     14  O6  UNL     1      26.171  -9.293 -38.413  0.00  0.00    +0.000 OA
ATOM     15  C14 UNL     1      27.248  -9.524 -37.678  0.00  0.00    +0.000 A 
ATOM     16  C15 UNL     1      27.145  -9.516 -36.265  0.00  0.00    +0.000 A 
ENDROOT
BRANCH   1  18
ATOM     17  C1  UNL     1      29.033  -9.162 -33.177  0.00  0.00    +0.000 C 
ATOM     18  O1  UNL     1      28.138  -9.789 -34.089  0.00  0.00    +0.000 OA
ENDBRANCH   1  18
BRANCH   3  19
ATOM     19  O2  UNL     1      30.942 -10.069 -38.004  0.00  0.00    +0.000 OA
ATOM     20  H5  UNL     1      31.257  -9.629 -38.857  0.00  0.00    +0.000 HD
ENDBRANCH   3  19
BRANCH   8  21
ATOM     21  O4  UNL     1      28.487  -9.936 -42.548  0.00  0.00    +0.000 OA
ATOM     22  C9  UNL     1      29.210  -8.998 -43.340  0.00  0.00    +0.000 C 
ENDBRANCH   8  21
BRANCH  16  23
ATOM     23  O7  UNL     1      25.945  -9.270 -35.569  0.00  0.00    +0.000 OA
ATOM     24  C16 UNL     1      25.419  -7.997 -35.205  0.00  0.00    +0.000 C 
ENDBRANCH  16  23
TORSDOF 4
ENDMDL
MODEL 8
REMARK VINA RESULT:    -4.867      3.330      5.702
REMARK INTER + INTRA:          -6.137
REMARK INTER:                  -5.872
REMARK INTRA:                  -0.265
REMARK UNBOUND:                -0.274
REMARK  Name = resultss/4CJN/ligands/lig_302_t1.pdb
REMARK  7 active torsions:
REMARK  status: ('A' for Active; 'I' for Inactive)
REMARK    1  A    between atoms: C1_1  and  O1_2
REMARK    2  A    between atoms: O1_2  and  C2_3
REMARK    3  A    between atoms: C4_5  and  O2_6
REMARK    4  A    between atoms: C8_11  and  O4_12
REMARK    5  A    between atoms: O4_12  and  C9_13
REMARK    6  A    between atoms: C15_21  and  O7_22
REMARK    7  A    between atoms: O7_22  and  C16_23
REMARK                            x       y       z     vdW  Elec       q    Type
REMARK                         _______ _______ _______ _____ _____    ______ ____
ROOT
ATOM      1  C2  UNL     1      27.458  -9.871 -40.166  0.00  0.00    +0.000 A 
ATOM      2  C3  UNL     1      26.064  -9.814 -40.028  0.00  0.00    +0.000 A 
ATOM      3  C4  UNL     1      25.258  -9.290 -41.037  0.00  0.00    +0.000 A 
ATOM      4  C5  UNL     1      25.857  -8.718 -42.196  0.00  0.00    +0.000 A 
ATOM      5  C6  UNL     1      25.131  -8.021 -43.194  0.00  0.00    +0.000 A 
ATOM      6  O3  UNL     1      23.909  -7.770 -43.017  0.00  0.00    +0.000 OA
ATOM      7  C7  UNL     1      25.787  -7.557 -44.368  0.00  0.00    +0.000 A 
ATOM      8  C8  UNL     1      25.109  -6.939 -45.385  0.00  0.00    +0.000 C 
ATOM      9  C10 UNL     1      25.818  -6.431 -46.630  0.00  0.00    +0.000 C 
ATOM     10  C11 UNL     1      27.288  -6.687 -46.627  0.00  0.00    +0.000 C 
ATOM     11  O5  UNL     1      27.992  -6.325 -47.607  0.00  0.00    +0.000 OA
ATOM     12  C12 UNL     1      27.913  -7.355 -45.489  0.00  0.00    +0.000 C 
ATOM     13  C13 UNL     1      27.190  -7.753 -44.440  0.00  0.00    +0.000 A 
ATOM     14  O6  UNL     1      27.837  -8.341 -43.445  0.00  0.00    +0.000 OA
ATOM     15  C14 UNL     1      27.263  -8.809 -42.348  0.00  0.00    +0.000 A 
ATOM     16  C15 UNL     1      28.062  -9.389 -41.332  0.00  0.00    +0.000 A 
ENDROOT
BRANCH   1  18
ATOM     17  C1  UNL     1      27.989 -10.387 -37.772  0.00  0.00    +0.000 C 
ATOM     18  O1  UNL     1      28.281 -10.413 -39.165  0.00  0.00    +0.000 OA
ENDBRANCH   1  18
BRANCH   3  19
ATOM     19  O2  UNL     1      23.877  -9.400 -40.851  0.00  0.00    +0.000 OA
ATOM     20  H5  UNL     1      23.192  -9.254 -41.579  0.00  0.00    +0.000 HD
ENDBRANCH   3  19
BRANCH   8  21
ATOM     21  O4  UNL     1      23.716  -6.769 -45.295  0.00  0.00    +0.000 OA
ATOM     22  C9  UNL     1      22.803  -6.993 -46.366  0.00  0.00    +0.000 C 
ENDBRANCH   8  21
BRANCH  16  23
ATOM     23  O7  UNL     1      29.464  -9.509 -41.413  0.00  0.00    +0.000 OA
ATOM     24  C16 UNL     1      30.425  -8.522 -41.049  0.00  0.00    +0.000 C 
ENDBRANCH  16  23
TORSDOF 4
ENDMDL
MODEL 9
REMARK VINA RESULT:    -4.859      1.917      6.630
REMARK INTER + INTRA:          -6.127
REMARK INTER:                  -5.853
REMARK INTRA:                  -0.274
REMARK UNBOUND:                -0.274
REMARK  Name = resultss/4CJN/ligands/lig_302_t1.pdb
REMARK  7 active torsions:
REMARK  status: ('A' for Active; 'I' for Inactive)
REMARK    1  A    between atoms: C1_1  and  O1_2
REMARK    2  A    between atoms: O1_2  and  C2_3
REMARK    3  A    between atoms: C4_5  and  O2_6
REMARK    4  A    between atoms: C8_11  and  O4_12
REMARK    5  A    between atoms: O4_12  and  C9_13
REMARK    6  A    between atoms: C15_21  and  O7_22
REMARK    7  A    between atoms: O7_22  and  C16_23
REMARK                            x       y       z     vdW  Elec       q    Type
REMARK                         _______ _______ _______ _____ _____    ______ ____
ROOT
ATOM      1  C2  UNL     1      25.795  -8.844 -42.685  0.00  0.00    +0.000 A 
ATOM      2  C3  UNL     1      27.088  -9.278 -43.011  0.00  0.00    +0.000 A 
ATOM      3  C4  UNL     1      27.992  -9.660 -42.020  0.00  0.00    +0.000 A 
ATOM      4  C5  UNL     1      27.638  -9.527 -40.648  0.00  0.00    +0.000 A 
ATOM      5  C6  UNL     1      28.543  -9.737 -39.578  0.00  0.00    +0.000 A 
ATOM      6  O3  UNL     1      29.764  -9.933 -39.821  0.00  0.00    +0.000 OA
ATOM      7  C7  UNL     1      28.090  -9.674 -38.230  0.00  0.00    +0.000 A 
ATOM      8  C8  UNL     1      28.918  -9.937 -37.171  0.00  0.00    +0.000 C 
ATOM      9  C10 UNL     1      28.432  -9.852 -35.733  0.00  0.00    +0.000 C 
ATOM     10  C11 UNL     1      26.993  -9.478 -35.609  0.00  0.00    +0.000 C 
ATOM     11  O5  UNL     1      26.463  -9.384 -34.471  0.00  0.00    +0.000 OA
ATOM     12  C12 UNL     1      26.198  -9.218 -36.805  0.00  0.00    +0.000 C 
ATOM     13  C13 UNL     1      26.733  -9.315 -38.025  0.00  0.00    +0.000 A 
ATOM     14  O6  UNL     1      25.945  -9.051 -39.056  0.00  0.00    +0.000 OA
ATOM     15  C14 UNL     1      26.319  -9.123 -40.324  0.00  0.00    +0.000 A 
ATOM     16  C15 UNL     1      25.397  -8.783 -41.346  0.00  0.00    +0.000 A 
ENDROOT
BRANCH   1  18
ATOM     17  C1  UNL     1      25.029  -7.378 -44.567  0.00  0.00    +0.000 C 
ATOM     18  O1  UNL     1      24.867  -8.473 -43.673  0.00  0.00    +0.000 OA
ENDBRANCH   1  18
BRANCH   3  19
ATOM     19  O2  UNL     1      29.205 -10.198 -42.461  0.00  0.00    +0.000 OA
ATOM     20  H5  UNL     1      29.808  -9.759 -43.142  0.00  0.00    +0.000 HD
ENDBRANCH   3  19
BRANCH   8  21
ATOM     21  O4  UNL     1      30.255 -10.304 -37.402  0.00  0.00    +0.000 OA
ATOM     22  C9  UNL     1      31.384  -9.647 -36.834  0.00  0.00    +0.000 C 
ENDBRANCH   8  21
BRANCH  16  23
ATOM     23  O7  UNL     1      24.073  -8.369 -41.098  0.00  0.00    +0.000 OA
ATOM     24  C16 UNL     1      23.639  -7.048 -40.788  0.00  0.00    +0.000 C 
ENDBRANCH  16  23
TORSDOF 4
ENDMDL
