MODEL 1
REMARK VINA RESULT:    -6.152      0.000      0.000
REMARK INTER + INTRA:          -9.397
REMARK INTER:                  -8.669
REMARK INTRA:                  -0.728
REMARK UNBOUND:                -0.728
REMARK  Name = resultss/4CJN/ligands/lig_300_t0.pdb
REMARK  11 active torsions:
REMARK  status: ('A' for Active; 'I' for Inactive)
REMARK    1  A    between atoms: C1_1  and  O1_2
REMARK    2  A    between atoms: O1_2  and  C2_3
REMARK    3  A    between atoms: C4_5  and  O2_6
REMARK    4  A    between atoms: C8_11  and  O4_12
REMARK    5  A    between atoms: C9_13  and  O5_14
REMARK    6  A    between atoms: O5_14  and  C10_15
REMARK    7  A    between atoms: C11_17  and  C12_18
REMARK    8  A    between atoms: C12_18  and  O7_19
REMARK    9  A    between atoms: C13_20  and  O8_21
REMARK   10  A    between atoms: C14_22  and  O9_23
REMARK   11  A    between atoms: C15_24  and  O10_25
REMARK                            x       y       z     vdW  Elec       q    Type
REMARK                         _______ _______ _______ _____ _____    ______ ____
ROOT
ATOM      1  C2  UNL     1      32.299 -11.714 -43.205  0.00  0.00    +0.000 A 
ATOM      2  C3  UNL     1      33.161 -10.869 -42.490  0.00  0.00    +0.000 A 
ATOM      3  C4  UNL     1      32.676 -10.010 -41.497  0.00  0.00    +0.000 A 
ATOM      4  C5  UNL     1      31.288 -10.034 -41.153  0.00  0.00    +0.000 A 
ATOM      5  C6  UNL     1      30.703  -9.291 -40.094  0.00  0.00    +0.000 A 
ATOM      6  O3  UNL     1      31.411  -8.518 -39.400  0.00  0.00    +0.000 OA
ATOM      7  C7  UNL     1      29.314  -9.406 -39.826  0.00  0.00    +0.000 A 
ATOM      8  C8  UNL     1      28.644  -8.736 -38.757  0.00  0.00    +0.000 A 
ATOM      9  C9  UNL     1      27.235  -8.774 -38.685  0.00  0.00    +0.000 A 
ATOM     10  C16 UNL     1      26.508  -9.568 -39.572  0.00  0.00    +0.000 A 
ATOM     11  C17 UNL     1      27.160 -10.297 -40.560  0.00  0.00    +0.000 A 
ATOM     12  C18 UNL     1      28.548 -10.214 -40.700  0.00  0.00    +0.000 A 
ATOM     13  O11 UNL     1      29.127 -10.913 -41.663  0.00  0.00    +0.000 OA
ATOM     14  C19 UNL     1      30.430 -10.879 -41.903  0.00  0.00    +0.000 A 
ATOM     15  C20 UNL     1      30.937 -11.698 -42.914  0.00  0.00    +0.000 A 
ENDROOT
BRANCH   1  17
ATOM     16  C1  UNL     1      34.107 -13.000 -44.364  0.00  0.00    +0.000 C 
ATOM     17  O1  UNL     1      32.754 -12.577 -44.214  0.00  0.00    +0.000 OA
ENDBRANCH   1  17
BRANCH   3  18
ATOM     18  O2  UNL     1      33.620  -9.163 -40.907  0.00  0.00    +0.000 OA
ATOM     19  H5  UNL     1      34.525  -9.444 -40.563  0.00  0.00    +0.000 HD
ENDBRANCH   3  18
BRANCH   8  20
ATOM     20  O4  UNL     1      29.320  -8.083 -37.722  0.00  0.00    +0.000 OA
ATOM     21  H6  UNL     1      30.165  -8.428 -37.290  0.00  0.00    +0.000 HD
ENDBRANCH   8  20
BRANCH   9  22
ATOM     22  O5  UNL     1      26.538  -8.069 -37.697  0.00  0.00    +0.000 OA
BRANCH  22  23
ATOM     23  C10 UNL     1      26.174  -8.645 -36.444  0.00  0.00    +0.000 C 
ATOM     24  O6  UNL     1      27.335  -8.727 -35.630  0.00  0.00    +0.000 OA
ATOM     25  C11 UNL     1      27.094  -9.003 -34.250  0.00  0.00    +0.000 C 
ATOM     26  C13 UNL     1      25.633  -9.391 -33.882  0.00  0.00    +0.000 C 
ATOM     27  C14 UNL     1      24.619  -8.366 -34.446  0.00  0.00    +0.000 C 
ATOM     28  C15 UNL     1      25.088  -7.768 -35.799  0.00  0.00    +0.000 C 
BRANCH  26  29
ATOM     29  O8  UNL     1      25.370 -10.682 -34.381  0.00  0.00    +0.000 OA
ATOM     30  H13 UNL     1      25.033 -11.230 -33.623  0.00  0.00    +0.000 HD
ENDBRANCH  26  29
BRANCH  27  31
ATOM     31  O9  UNL     1      23.354  -8.973 -34.568  0.00  0.00    +0.000 OA
ATOM     32  H15 UNL     1      22.684  -8.244 -34.649  0.00  0.00    +0.000 HD
ENDBRANCH  27  31
BRANCH  28  33
ATOM     33  O10 UNL     1      24.013  -7.624 -36.692  0.00  0.00    +0.000 OA
ATOM     34  H17 UNL     1      24.171  -8.262 -37.437  0.00  0.00    +0.000 HD
ENDBRANCH  28  33
BRANCH  25  35
ATOM     35  C12 UNL     1      27.600  -7.810 -33.416  0.00  0.00    +0.000 C 
BRANCH  35  36
ATOM     36  O7  UNL     1      27.117  -7.871 -32.101  0.00  0.00    +0.000 OA
ATOM     37  H11 UNL     1      27.285  -6.981 -31.694  0.00  0.00    +0.000 HD
ENDBRANCH  35  36
ENDBRANCH  25  35
ENDBRANCH  22  23
ENDBRANCH   9  22
TORSDOF 10
ENDMDL
MODEL 2
REMARK VINA RESULT:    -6.075      3.745      5.742
REMARK INTER + INTRA:          -9.289
REMARK INTER:                  -8.362
REMARK INTRA:                  -0.927
REMARK UNBOUND:                -0.728
REMARK  Name = resultss/4CJN/ligands/lig_300_t0.pdb
REMARK  11 active torsions:
REMARK  status: ('A' for Active; 'I' for Inactive)
REMARK    1  A    between atoms: C1_1  and  O1_2
REMARK    2  A    between atoms: O1_2  and  C2_3
REMARK    3  A    between atoms: C4_5  and  O2_6
REMARK    4  A    between atoms: C8_11  and  O4_12
REMARK    5  A    between atoms: C9_13  and  O5_14
REMARK    6  A    between atoms: O5_14  and  C10_15
REMARK    7  A    between atoms: C11_17  and  C12_18
REMARK    8  A    between atoms: C12_18  and  O7_19
REMARK    9  A    between atoms: C13_20  and  O8_21
REMARK   10  A    between atoms: C14_22  and  O9_23
REMARK   11  A    between atoms: C15_24  and  O10_25
REMARK                            x       y       z     vdW  Elec       q    Type
REMARK                         _______ _______ _______ _____ _____    ______ ____
ROOT
ATOM      1  C2  UNL     1      25.983  -6.995 -45.630  0.00  0.00    +0.000 A 
ATOM      2  C3  UNL     1      24.629  -7.288 -45.412  0.00  0.00    +0.000 A 
ATOM      3  C4  UNL     1      24.183  -7.781 -44.180  0.00  0.00    +0.000 A 
ATOM      4  C5  UNL     1      25.107  -7.932 -43.099  0.00  0.00    +0.000 A 
ATOM      5  C6  UNL     1      24.753  -8.319 -41.779  0.00  0.00    +0.000 A 
ATOM      6  O3  UNL     1      23.557  -8.589 -41.500  0.00  0.00    +0.000 OA
ATOM      7  C7  UNL     1      25.750  -8.417 -40.775  0.00  0.00    +0.000 A 
ATOM      8  C8  UNL     1      25.487  -8.752 -39.411  0.00  0.00    +0.000 A 
ATOM      9  C9  UNL     1      26.564  -8.999 -38.534  0.00  0.00    +0.000 A 
ATOM     10  C16 UNL     1      27.876  -8.788 -38.956  0.00  0.00    +0.000 A 
ATOM     11  C17 UNL     1      28.138  -8.372 -40.257  0.00  0.00    +0.000 A 
ATOM     12  C18 UNL     1      27.093  -8.196 -41.167  0.00  0.00    +0.000 A 
ATOM     13  O11 UNL     1      27.387  -7.814 -42.399  0.00  0.00    +0.000 OA
ATOM     14  C19 UNL     1      26.475  -7.650 -43.347  0.00  0.00    +0.000 A 
ATOM     15  C20 UNL     1      26.896  -7.194 -44.598  0.00  0.00    +0.000 A 
ENDROOT
BRANCH   1  17
ATOM     16  C1  UNL     1      25.764  -6.618 -48.095  0.00  0.00    +0.000 C 
ATOM     17  O1  UNL     1      26.462  -6.509 -46.857  0.00  0.00    +0.000 OA
ENDBRANCH   1  17
BRANCH   3  18
ATOM     18  O2  UNL     1      22.824  -8.107 -44.108  0.00  0.00    +0.000 OA
ATOM     19  H5  UNL     1      22.450  -9.038 -44.012  0.00  0.00    +0.000 HD
ENDBRANCH   3  18
BRANCH   8  20
ATOM     20  O4  UNL     1      24.198  -8.791 -38.869  0.00  0.00    +0.000 OA
ATOM     21  H6  UNL     1      23.982  -9.127 -37.942  0.00  0.00    +0.000 HD
ENDBRANCH   8  20
BRANCH   9  22
ATOM     22  O5  UNL     1      26.348  -9.404 -37.211  0.00  0.00    +0.000 OA
BRANCH  22  23
ATOM     23  C10 UNL     1      26.145  -8.482 -36.142  0.00  0.00    +0.000 C 
ATOM     24  O6  UNL     1      25.628  -7.273 -36.679  0.00  0.00    +0.000 OA
ATOM     25  C11 UNL     1      25.094  -6.359 -35.721  0.00  0.00    +0.000 C 
ATOM     26  C13 UNL     1      25.356  -6.713 -34.228  0.00  0.00    +0.000 C 
ATOM     27  C14 UNL     1      24.945  -8.173 -33.916  0.00  0.00    +0.000 C 
ATOM     28  C15 UNL     1      25.176  -9.114 -35.129  0.00  0.00    +0.000 C 
BRANCH  26  29
ATOM     29  O8  UNL     1      26.721  -6.505 -33.948  0.00  0.00    +0.000 OA
ATOM     30  H13 UNL     1      26.782  -5.721 -33.340  0.00  0.00    +0.000 HD
ENDBRANCH  26  29
BRANCH  27  31
ATOM     31  O9  UNL     1      25.644  -8.625 -32.779  0.00  0.00    +0.000 OA
ATOM     32  H15 UNL     1      26.579  -8.808 -33.062  0.00  0.00    +0.000 HD
ENDBRANCH  27  31
BRANCH  28  33
ATOM     33  O10 UNL     1      25.679 -10.360 -34.717  0.00  0.00    +0.000 OA
ATOM     34  H17 UNL     1      25.436 -11.015 -35.422  0.00  0.00    +0.000 HD
ENDBRANCH  28  33
BRANCH  25  35
ATOM     35  C12 UNL     1      23.594  -6.163 -36.012  0.00  0.00    +0.000 C 
BRANCH  35  36
ATOM     36  O7  UNL     1      23.162  -7.019 -37.036  0.00  0.00    +0.000 OA
ATOM     37  H11 UNL     1      22.397  -7.537 -36.671  0.00  0.00    +0.000 HD
ENDBRANCH  35  36
ENDBRANCH  25  35
ENDBRANCH  22  23
ENDBRANCH   9  22
TORSDOF 10
ENDMDL
MODEL 3
REMARK VINA RESULT:    -5.695      4.439      6.215
REMARK INTER + INTRA:          -8.754
REMARK INTER:                  -7.902
REMARK INTRA:                  -0.852
REMARK UNBOUND:                -0.728
REMARK  Name = resultss/4CJN/ligands/lig_300_t0.pdb
REMARK  11 active torsions:
REMARK  status: ('A' for Active; 'I' for Inactive)
REMARK    1  A    between atoms: C1_1  and  O1_2
REMARK    2  A    between atoms: O1_2  and  C2_3
REMARK    3  A    between atoms: C4_5  and  O2_6
REMARK    4  A    between atoms: C8_11  and  O4_12
REMARK    5  A    between atoms: C9_13  and  O5_14
REMARK    6  A    between atoms: O5_14  and  C10_15
REMARK    7  A    between atoms: C11_17  and  C12_18
REMARK    8  A    between atoms: C12_18  and  O7_19
REMARK    9  A    between atoms: C13_20  and  O8_21
REMARK   10  A    between atoms: C14_22  and  O9_23
REMARK   11  A    between atoms: C15_24  and  O10_25
REMARK                            x       y       z     vdW  Elec       q    Type
REMARK                         _______ _______ _______ _____ _____    ______ ____
ROOT
ATOM      1  C2  UNL     1      24.792  -6.537 -46.885  0.00  0.00    +0.000 A 
ATOM      2  C3  UNL     1      26.188  -6.574 -47.016  0.00  0.00    +0.000 A 
ATOM      3  C4  UNL     1      27.002  -7.048 -45.980  0.00  0.00    +0.000 A 
ATOM      4  C5  UNL     1      26.404  -7.567 -44.789  0.00  0.00    +0.000 A 
ATOM      5  C6  UNL     1      27.119  -8.172 -43.721  0.00  0.00    +0.000 A 
ATOM      6  O3  UNL     1      28.372  -8.252 -43.767  0.00  0.00    +0.000 OA
ATOM      7  C7  UNL     1      26.421  -8.673 -42.592  0.00  0.00    +0.000 A 
ATOM      8  C8  UNL     1      27.046  -9.338 -41.492  0.00  0.00    +0.000 A 
ATOM      9  C9  UNL     1      26.290  -9.638 -40.339  0.00  0.00    +0.000 A 
ATOM     10  C16 UNL     1      24.915  -9.409 -40.322  0.00  0.00    +0.000 A 
ATOM     11  C17 UNL     1      24.282  -8.846 -41.424  0.00  0.00    +0.000 A 
ATOM     12  C18 UNL     1      25.021  -8.469 -42.548  0.00  0.00    +0.000 A 
ATOM     13  O11 UNL     1      24.382  -7.924 -43.570  0.00  0.00    +0.000 OA
ATOM     14  C19 UNL     1      24.992  -7.501 -44.668  0.00  0.00    +0.000 A 
ATOM     15  C20 UNL     1      24.208  -6.987 -45.704  0.00  0.00    +0.000 A 
ENDROOT
BRANCH   1  17
ATOM     16  C1  UNL     1      22.674  -6.605 -48.218  0.00  0.00    +0.000 C 
ATOM     17  O1  UNL     1      23.951  -6.057 -47.902  0.00  0.00    +0.000 OA
ENDBRANCH   1  17
BRANCH   3  18
ATOM     18  O2  UNL     1      28.381  -6.965 -46.199  0.00  0.00    +0.000 OA
ATOM     19  H5  UNL     1      29.091  -7.390 -45.623  0.00  0.00    +0.000 HD
ENDBRANCH   3  18
BRANCH   8  20
ATOM     20  O4  UNL     1      28.375  -9.772 -41.517  0.00  0.00    +0.000 OA
ATOM     21  H6  UNL     1      29.123  -9.340 -40.994  0.00  0.00    +0.000 HD
ENDBRANCH   8  20
BRANCH   9  22
ATOM     22  O5  UNL     1      26.882 -10.219 -39.212  0.00  0.00    +0.000 OA
BRANCH  22  23
ATOM     23  C10 UNL     1      27.433  -9.452 -38.142  0.00  0.00    +0.000 C 
ATOM     24  O6  UNL     1      26.480  -9.394 -37.090  0.00  0.00    +0.000 OA
ATOM     25  C11 UNL     1      26.980  -8.921 -35.840  0.00  0.00    +0.000 C 
ATOM     26  C13 UNL     1      28.420  -8.332 -35.866  0.00  0.00    +0.000 C 
ATOM     27  C14 UNL     1      29.414  -9.303 -36.549  0.00  0.00    +0.000 C 
ATOM     28  C15 UNL     1      28.743 -10.116 -37.688  0.00  0.00    +0.000 C 
BRANCH  26  29
ATOM     29  O8  UNL     1      28.388  -7.094 -36.537  0.00  0.00    +0.000 OA
ATOM     30  H13 UNL     1      28.345  -6.382 -35.845  0.00  0.00    +0.000 HD
ENDBRANCH  26  29
BRANCH  27  31
ATOM     31  O9  UNL     1      30.526  -8.581 -37.024  0.00  0.00    +0.000 OA
ATOM     32  H15 UNL     1      30.440  -7.651 -36.685  0.00  0.00    +0.000 HD
ENDBRANCH  27  31
BRANCH  28  33
ATOM     33  O10 UNL     1      29.604 -10.254 -38.790  0.00  0.00    +0.000 OA
ATOM     34  H17 UNL     1      30.311  -9.565 -38.689  0.00  0.00    +0.000 HD
ENDBRANCH  28  33
BRANCH  25  35
ATOM     35  C12 UNL     1      26.837 -10.046 -34.797  0.00  0.00    +0.000 C 
BRANCH  35  36
ATOM     36  O7  UNL     1      25.495 -10.419 -34.636  0.00  0.00    +0.000 OA
ATOM     37  H11 UNL     1      24.961  -9.581 -34.659  0.00  0.00    +0.000 HD
ENDBRANCH  35  36
ENDBRANCH  25  35
ENDBRANCH  22  23
ENDBRANCH   9  22
TORSDOF 10
ENDMDL
MODEL 4
REMARK VINA RESULT:    -5.581      2.855      4.371
REMARK INTER + INTRA:          -8.593
REMARK INTER:                  -7.805
REMARK INTRA:                  -0.788
REMARK UNBOUND:                -0.728
REMARK  Name = resultss/4CJN/ligands/lig_300_t0.pdb
REMARK  11 active torsions:
REMARK  status: ('A' for Active; 'I' for Inactive)
REMARK    1  A    between atoms: C1_1  and  O1_2
REMARK    2  A    between atoms: O1_2  and  C2_3
REMARK    3  A    between atoms: C4_5  and  O2_6
REMARK    4  A    between atoms: C8_11  and  O4_12
REMARK    5  A    between atoms: C9_13  and  O5_14
REMARK    6  A    between atoms: O5_14  and  C10_15
REMARK    7  A    between atoms: C11_17  and  C12_18
REMARK    8  A    between atoms: C12_18  and  O7_19
REMARK    9  A    between atoms: C13_20  and  O8_21
REMARK   10  A    between atoms: C14_22  and  O9_23
REMARK   11  A    between atoms: C15_24  and  O10_25
REMARK                            x       y       z     vdW  Elec       q    Type
REMARK                         _______ _______ _______ _____ _____    ______ ____
ROOT
ATOM      1  C2  UNL     1      27.158  -7.708 -43.887  0.00  0.00    +0.000 A 
ATOM      2  C3  UNL     1      28.289  -8.533 -43.796  0.00  0.00    +0.000 A 
ATOM      3  C4  UNL     1      28.663  -9.120 -42.581  0.00  0.00    +0.000 A 
ATOM      4  C5  UNL     1      27.847  -8.933 -41.421  0.00  0.00    +0.000 A 
ATOM      5  C6  UNL     1      28.065  -9.564 -40.168  0.00  0.00    +0.000 A 
ATOM      6  O3  UNL     1      29.052 -10.325 -40.008  0.00  0.00    +0.000 OA
ATOM      7  C7  UNL     1      27.178  -9.322 -39.087  0.00  0.00    +0.000 A 
ATOM      8  C8  UNL     1      27.287  -9.944 -37.804  0.00  0.00    +0.000 A 
ATOM      9  C9  UNL     1      26.466  -9.503 -36.745  0.00  0.00    +0.000 A 
ATOM     10  C16 UNL     1      25.464  -8.562 -36.978  0.00  0.00    +0.000 A 
ATOM     11  C17 UNL     1      25.290  -8.018 -38.245  0.00  0.00    +0.000 A 
ATOM     12  C18 UNL     1      26.141  -8.381 -39.293  0.00  0.00    +0.000 A 
ATOM     13  O11 UNL     1      25.950  -7.829 -40.480  0.00  0.00    +0.000 OA
ATOM     14  C19 UNL     1      26.720  -8.079 -41.530  0.00  0.00    +0.000 A 
ATOM     15  C20 UNL     1      26.392  -7.477 -42.747  0.00  0.00    +0.000 A 
ENDROOT
BRANCH   1  17
ATOM     16  C1  UNL     1      27.592  -6.981 -46.243  0.00  0.00    +0.000 C 
ATOM     17  O1  UNL     1      26.764  -7.098 -45.088  0.00  0.00    +0.000 OA
ENDBRANCH   1  17
BRANCH   3  18
ATOM     18  O2  UNL     1      29.850  -9.860 -42.599  0.00  0.00    +0.000 OA
ATOM     19  H5  UNL     1      29.984 -10.740 -43.071  0.00  0.00    +0.000 HD
ENDBRANCH   3  18
BRANCH   8  20
ATOM     20  O4  UNL     1      28.135 -11.026 -37.550  0.00  0.00    +0.000 OA
ATOM     21  H6  UNL     1      29.133 -11.012 -37.698  0.00  0.00    +0.000 HD
ENDBRANCH   8  20
BRANCH   9  22
ATOM     22  O5  UNL     1      26.595 -10.033 -35.456  0.00  0.00    +0.000 OA
BRANCH  22  23
ATOM     23  C10 UNL     1      27.569  -9.572 -34.521  0.00  0.00    +0.000 C 
ATOM     24  O6  UNL     1      28.773  -9.296 -35.223  0.00  0.00    +0.000 OA
ATOM     25  C11 UNL     1      29.747  -8.552 -34.492  0.00  0.00    +0.000 C 
ATOM     26  C13 UNL     1      29.447  -8.346 -32.978  0.00  0.00    +0.000 C 
ATOM     27  C14 UNL     1      28.019  -7.789 -32.758  0.00  0.00    +0.000 C 
ATOM     28  C15 UNL     1      27.019  -8.319 -33.821  0.00  0.00    +0.000 C 
BRANCH  26  29
ATOM     29  O8  UNL     1      29.614  -9.577 -32.315  0.00  0.00    +0.000 OA
ATOM     30  H13 UNL     1      30.495  -9.945 -32.590  0.00  0.00    +0.000 HD
ENDBRANCH  26  29
BRANCH  27  31
ATOM     31  O9  UNL     1      27.589  -8.100 -31.454  0.00  0.00    +0.000 OA
ATOM     32  H15 UNL     1      28.134  -7.554 -30.827  0.00  0.00    +0.000 HD
ENDBRANCH  27  31
BRANCH  28  33
ATOM     33  O10 UNL     1      25.773  -8.616 -33.242  0.00  0.00    +0.000 OA
ATOM     34  H17 UNL     1      25.120  -8.686 -33.987  0.00  0.00    +0.000 HD
ENDBRANCH  28  33
BRANCH  25  35
ATOM     35  C12 UNL     1      29.989  -7.214 -35.218  0.00  0.00    +0.000 C 
BRANCH  35  36
ATOM     36  O7  UNL     1      29.224  -7.131 -36.391  0.00  0.00    +0.000 OA
ATOM     37  H11 UNL     1      28.420  -6.590 -36.169  0.00  0.00    +0.000 HD
ENDBRANCH  35  36
ENDBRANCH  25  35
ENDBRANCH  22  23
ENDBRANCH   9  22
TORSDOF 10
ENDMDL
MODEL 5
REMARK VINA RESULT:    -5.545      3.674      7.878
REMARK INTER + INTRA:          -8.542
REMARK INTER:                  -7.724
REMARK INTRA:                  -0.818
REMARK UNBOUND:                -0.728
REMARK  Name = resultss/4CJN/ligands/lig_300_t0.pdb
REMARK  11 active torsions:
REMARK  status: ('A' for Active; 'I' for Inactive)
REMARK    1  A    between atoms: C1_1  and  O1_2
REMARK    2  A    between atoms: O1_2  and  C2_3
REMARK    3  A    between atoms: C4_5  and  O2_6
REMARK    4  A    between atoms: C8_11  and  O4_12
REMARK    5  A    between atoms: C9_13  and  O5_14
REMARK    6  A    between atoms: O5_14  and  C10_15
REMARK    7  A    between atoms: C11_17  and  C12_18
REMARK    8  A    between atoms: C12_18  and  O7_19
REMARK    9  A    between atoms: C13_20  and  O8_21
REMARK   10  A    between atoms: C14_22  and  O9_23
REMARK   11  A    between atoms: C15_24  and  O10_25
REMARK                            x       y       z     vdW  Elec       q    Type
REMARK                         _______ _______ _______ _____ _____    ______ ____
ROOT
ATOM      1  C2  UNL     1      30.800  -9.704 -34.134  0.00  0.00    +0.000 A 
ATOM      2  C3  UNL     1      29.432  -9.821 -33.846  0.00  0.00    +0.000 A 
ATOM      3  C4  UNL     1      28.473  -9.821 -34.866  0.00  0.00    +0.000 A 
ATOM      4  C5  UNL     1      28.891  -9.764 -36.233  0.00  0.00    +0.000 A 
ATOM      5  C6  UNL     1      28.020  -9.866 -37.350  0.00  0.00    +0.000 A 
ATOM      6  O3  UNL     1      26.781  -9.983 -37.176  0.00  0.00    +0.000 OA
ATOM      7  C7  UNL     1      28.545  -9.818 -38.668  0.00  0.00    +0.000 A 
ATOM      8  C8  UNL     1      27.757  -9.957 -39.852  0.00  0.00    +0.000 A 
ATOM      9  C9  UNL     1      28.345  -9.717 -41.112  0.00  0.00    +0.000 A 
ATOM     10  C16 UNL     1      29.715  -9.475 -41.213  0.00  0.00    +0.000 A 
ATOM     11  C17 UNL     1      30.507  -9.429 -40.072  0.00  0.00    +0.000 A 
ATOM     12  C18 UNL     1      29.935  -9.587 -38.807  0.00  0.00    +0.000 A 
ATOM     13  O11 UNL     1      30.722  -9.521 -37.746  0.00  0.00    +0.000 OA
ATOM     14  C19 UNL     1      30.277  -9.624 -36.502  0.00  0.00    +0.000 A 
ATOM     15  C20 UNL     1      31.207  -9.590 -35.461  0.00  0.00    +0.000 A 
ENDROOT
BRANCH   1  17
ATOM     16  C1  UNL     1      31.897 -10.667 -32.101  0.00  0.00    +0.000 C 
ATOM     17  O1  UNL     1      31.784  -9.691 -33.133  0.00  0.00    +0.000 OA
ENDBRANCH   1  17
BRANCH   3  18
ATOM     18  O2  UNL     1      27.138  -9.867 -34.450  0.00  0.00    +0.000 OA
ATOM     19  H5  UNL     1      26.535 -10.672 -34.510  0.00  0.00    +0.000 HD
ENDBRANCH   3  18
BRANCH   8  20
ATOM     20  O4  UNL     1      26.427 -10.387 -39.838  0.00  0.00    +0.000 OA
ATOM     21  H6  UNL     1      25.639  -9.785 -39.647  0.00  0.00    +0.000 HD
ENDBRANCH   8  20
BRANCH   9  22
ATOM     22  O5  UNL     1      27.590  -9.769 -42.289  0.00  0.00    +0.000 OA
BRANCH  22  23
ATOM     23  C10 UNL     1      26.774  -8.687 -42.735  0.00  0.00    +0.000 C 
ATOM     24  O6  UNL     1      27.486  -7.967 -43.732  0.00  0.00    +0.000 OA
ATOM     25  C11 UNL     1      26.705  -7.041 -44.489  0.00  0.00    +0.000 C 
ATOM     26  C13 UNL     1      25.259  -6.792 -43.970  0.00  0.00    +0.000 C 
ATOM     27  C14 UNL     1      24.504  -8.125 -43.745  0.00  0.00    +0.000 C 
ATOM     28  C15 UNL     1      25.456  -9.260 -43.279  0.00  0.00    +0.000 C 
BRANCH  26  29
ATOM     29  O8  UNL     1      25.330  -6.048 -42.776  0.00  0.00    +0.000 OA
ATOM     30  H13 UNL     1      24.427  -5.668 -42.609  0.00  0.00    +0.000 HD
ENDBRANCH  26  29
BRANCH  27  31
ATOM     31  O9  UNL     1      23.460  -7.924 -42.822  0.00  0.00    +0.000 OA
ATOM     32  H15 UNL     1      23.851  -7.471 -42.028  0.00  0.00    +0.000 HD
ENDBRANCH  27  31
BRANCH  28  33
ATOM     33  O10 UNL     1      24.851 -10.057 -42.292  0.00  0.00    +0.000 OA
ATOM     34  H17 UNL     1      24.636  -9.457 -41.531  0.00  0.00    +0.000 HD
ENDBRANCH  28  33
BRANCH  25  35
ATOM     35  C12 UNL     1      26.720  -7.478 -45.966  0.00  0.00    +0.000 C 
BRANCH  35  36
ATOM     36  O7  UNL     1      28.003  -7.349 -46.518  0.00  0.00    +0.000 OA
ATOM     37  H11 UNL     1      28.033  -7.946 -47.312  0.00  0.00    +0.000 HD
ENDBRANCH  35  36
ENDBRANCH  25  35
ENDBRANCH  22  23
ENDBRANCH   9  22
TORSDOF 10
ENDMDL
MODEL 6
REMARK VINA RESULT:    -5.478      6.138      8.991
REMARK INTER + INTRA:          -8.448
REMARK INTER:                  -7.901
REMARK INTRA:                  -0.546
REMARK UNBOUND:                -0.728
REMARK  Name = resultss/4CJN/ligands/lig_300_t0.pdb
REMARK  11 active torsions:
REMARK  status: ('A' for Active; 'I' for Inactive)
REMARK    1  A    between atoms: C1_1  and  O1_2
REMARK    2  A    between atoms: O1_2  and  C2_3
REMARK    3  A    between atoms: C4_5  and  O2_6
REMARK    4  A    between atoms: C8_11  and  O4_12
REMARK    5  A    between atoms: C9_13  and  O5_14
REMARK    6  A    between atoms: O5_14  and  C10_15
REMARK    7  A    between atoms: C11_17  and  C12_18
REMARK    8  A    between atoms: C12_18  and  O7_19
REMARK    9  A    between atoms: C13_20  and  O8_21
REMARK   10  A    between atoms: C14_22  and  O9_23
REMARK   11  A    between atoms: C15_24  and  O10_25
REMARK                            x       y       z     vdW  Elec       q    Type
REMARK                         _______ _______ _______ _____ _____    ______ ____
ROOT
ATOM      1  C2  UNL     1      21.926  -6.908 -48.009  0.00  0.00    +0.000 A 
ATOM      2  C3  UNL     1      21.247  -6.919 -46.782  0.00  0.00    +0.000 A 
ATOM      3  C4  UNL     1      21.940  -7.008 -45.569  0.00  0.00    +0.000 A 
ATOM      4  C5  UNL     1      23.371  -7.023 -45.569  0.00  0.00    +0.000 A 
ATOM      5  C6  UNL     1      24.180  -7.002 -44.402  0.00  0.00    +0.000 A 
ATOM      6  O3  UNL     1      23.647  -7.001 -43.264  0.00  0.00    +0.000 OA
ATOM      7  C7  UNL     1      25.595  -6.999 -44.518  0.00  0.00    +0.000 A 
ATOM      8  C8  UNL     1      26.491  -6.932 -43.407  0.00  0.00    +0.000 A 
ATOM      9  C9  UNL     1      27.875  -7.115 -43.617  0.00  0.00    +0.000 A 
ATOM     10  C16 UNL     1      28.380  -7.228 -44.912  0.00  0.00    +0.000 A 
ATOM     11  C17 UNL     1      27.523  -7.202 -46.006  0.00  0.00    +0.000 A 
ATOM     12  C18 UNL     1      26.142  -7.099 -45.820  0.00  0.00    +0.000 A 
ATOM     13  O11 UNL     1      25.360  -7.093 -46.888  0.00  0.00    +0.000 OA
ATOM     14  C19 UNL     1      24.038  -7.033 -46.821  0.00  0.00    +0.000 A 
ATOM     15  C20 UNL     1      23.317  -6.982 -48.016  0.00  0.00    +0.000 A 
ENDROOT
BRANCH   1  17
ATOM     16  C1  UNL     1      19.854  -6.630 -49.386  0.00  0.00    +0.000 C 
ATOM     17  O1  UNL     1      21.258  -6.831 -49.241  0.00  0.00    +0.000 OA
ENDBRANCH   1  17
BRANCH   3  18
ATOM     18  O2  UNL     1      21.150  -7.086 -44.417  0.00  0.00    +0.000 OA
ATOM     19  H5  UNL     1      21.436  -7.490 -43.539  0.00  0.00    +0.000 HD
ENDBRANCH   3  18
BRANCH   8  20
ATOM     20  O4  UNL     1      26.075  -6.629 -42.108  0.00  0.00    +0.000 OA
ATOM     21  H6  UNL     1      25.229  -6.981 -41.686  0.00  0.00    +0.000 HD
ENDBRANCH   8  20
BRANCH   9  22
ATOM     22  O5  UNL     1      28.776  -7.132 -42.547  0.00  0.00    +0.000 OA
BRANCH  22  23
ATOM     23  C10 UNL     1      28.879  -8.226 -41.637  0.00  0.00    +0.000 C 
ATOM     24  O6  UNL     1      27.742  -8.213 -40.786  0.00  0.00    +0.000 OA
ATOM     25  C11 UNL     1      27.541  -9.401 -40.019  0.00  0.00    +0.000 C 
ATOM     26  C13 UNL     1      28.703 -10.435 -40.056  0.00  0.00    +0.000 C 
ATOM     27  C14 UNL     1      29.125 -10.758 -41.511  0.00  0.00    +0.000 C 
ATOM     28  C15 UNL     1      28.970  -9.529 -42.447  0.00  0.00    +0.000 C 
BRANCH  26  29
ATOM     29  O8  UNL     1      29.789  -9.919 -39.322  0.00  0.00    +0.000 OA
ATOM     30  H13 UNL     1      29.545  -8.997 -39.042  0.00  0.00    +0.000 HD
ENDBRANCH  26  29
BRANCH  27  31
ATOM     31  O9  UNL     1      30.447 -11.243 -41.521  0.00  0.00    +0.000 OA
ATOM     32  H15 UNL     1      30.934 -10.756 -42.237  0.00  0.00    +0.000 HD
ENDBRANCH  27  31
BRANCH  28  33
ATOM     33  O10 UNL     1      30.040  -9.443 -43.353  0.00  0.00    +0.000 OA
ATOM     34  H17 UNL     1      30.337 -10.372 -43.537  0.00  0.00    +0.000 HD
ENDBRANCH  28  33
BRANCH  25  35
ATOM     35  C12 UNL     1      26.197 -10.031 -40.434  0.00  0.00    +0.000 C 
BRANCH  35  36
ATOM     36  O7  UNL     1      25.216  -9.047 -40.627  0.00  0.00    +0.000 OA
ATOM     37  H11 UNL     1      24.733  -9.285 -41.462  0.00  0.00    +0.000 HD
ENDBRANCH  35  36
ENDBRANCH  25  35
ENDBRANCH  22  23
ENDBRANCH   9  22
TORSDOF 10
ENDMDL
MODEL 7
REMARK VINA RESULT:    -5.456      3.187      7.006
REMARK INTER + INTRA:          -8.417
REMARK INTER:                  -7.698
REMARK INTRA:                  -0.719
REMARK UNBOUND:                -0.728
REMARK  Name = resultss/4CJN/ligands/lig_300_t0.pdb
REMARK  11 active torsions:
REMARK  status: ('A' for Active; 'I' for Inactive)
REMARK    1  A    between atoms: C1_1  and  O1_2
REMARK    2  A    between atoms: O1_2  and  C2_3
REMARK    3  A    between atoms: C4_5  and  O2_6
REMARK    4  A    between atoms: C8_11  and  O4_12
REMARK    5  A    between atoms: C9_13  and  O5_14
REMARK    6  A    between atoms: O5_14  and  C10_15
REMARK    7  A    between atoms: C11_17  and  C12_18
REMARK    8  A    between atoms: C12_18  and  O7_19
REMARK    9  A    between atoms: C13_20  and  O8_21
REMARK   10  A    between atoms: C14_22  and  O9_23
REMARK   11  A    between atoms: C15_24  and  O10_25
REMARK                            x       y       z     vdW  Elec       q    Type
REMARK                         _______ _______ _______ _____ _____    ______ ____
ROOT
ATOM      1  C2  UNL     1      30.981 -10.045 -33.015  0.00  0.00    +0.000 A 
ATOM      2  C3  UNL     1      31.916  -9.499 -33.906  0.00  0.00    +0.000 A 
ATOM      3  C4  UNL     1      31.521  -8.971 -35.141  0.00  0.00    +0.000 A 
ATOM      4  C5  UNL     1      30.132  -8.926 -35.481  0.00  0.00    +0.000 A 
ATOM      5  C6  UNL     1      29.605  -8.319 -36.652  0.00  0.00    +0.000 A 
ATOM      6  O3  UNL     1      30.377  -7.799 -37.495  0.00  0.00    +0.000 OA
ATOM      7  C7  UNL     1      28.204  -8.313 -36.880  0.00  0.00    +0.000 A 
ATOM      8  C8  UNL     1      27.576  -7.689 -38.002  0.00  0.00    +0.000 A 
ATOM      9  C9  UNL     1      26.199  -7.892 -38.232  0.00  0.00    +0.000 A 
ATOM     10  C16 UNL     1      25.427  -8.587 -37.301  0.00  0.00    +0.000 A 
ATOM     11  C17 UNL     1      26.013  -9.120 -36.159  0.00  0.00    +0.000 A 
ATOM     12  C18 UNL     1      27.389  -8.998 -35.947  0.00  0.00    +0.000 A 
ATOM     13  O11 UNL     1      27.909  -9.532 -34.854  0.00  0.00    +0.000 OA
ATOM     14  C19 UNL     1      29.204  -9.503 -34.576  0.00  0.00    +0.000 A 
ATOM     15  C20 UNL     1      29.634 -10.055 -33.367  0.00  0.00    +0.000 A 
ENDROOT
BRANCH   1  17
ATOM     16  C1  UNL     1      32.403 -11.531 -31.589  0.00  0.00    +0.000 C 
ATOM     17  O1  UNL     1      31.349 -10.590 -31.775  0.00  0.00    +0.000 OA
ENDBRANCH   1  17
BRANCH   3  18
ATOM     18  O2  UNL     1      32.552  -8.524 -35.974  0.00  0.00    +0.000 OA
ATOM     19  H5  UNL     1      33.503  -8.355 -35.688  0.00  0.00    +0.000 HD
ENDBRANCH   3  18
BRANCH   8  20
ATOM     20  O4  UNL     1      28.248  -6.821 -38.868  0.00  0.00    +0.000 OA
ATOM     21  H6  UNL     1      28.392  -6.999 -39.851  0.00  0.00    +0.000 HD
ENDBRANCH   8  20
BRANCH   9  22
ATOM     22  O5  UNL     1      25.563  -7.361 -39.360  0.00  0.00    +0.000 OA
BRANCH  22  23
ATOM     23  C10 UNL     1      25.692  -7.930 -40.662  0.00  0.00    +0.000 C 
ATOM     24  O6  UNL     1      27.062  -7.896 -41.037  0.00  0.00    +0.000 OA
ATOM     25  C11 UNL     1      27.403  -8.687 -42.175  0.00  0.00    +0.000 C 
ATOM     26  C13 UNL     1      26.204  -9.286 -42.966  0.00  0.00    +0.000 C 
ATOM     27  C14 UNL     1      25.223 -10.029 -42.026  0.00  0.00    +0.000 C 
ATOM     28  C15 UNL     1      25.148  -9.367 -40.624  0.00  0.00    +0.000 C 
BRANCH  26  29
ATOM     29  O8  UNL     1      25.550  -8.243 -43.651  0.00  0.00    +0.000 OA
ATOM     30  H13 UNL     1      24.589  -8.488 -43.716  0.00  0.00    +0.000 HD
ENDBRANCH  26  29
BRANCH  27  31
ATOM     31  O9  UNL     1      23.952 -10.093 -42.629  0.00  0.00    +0.000 OA
ATOM     32  H15 UNL     1      23.528 -10.942 -42.334  0.00  0.00    +0.000 HD
ENDBRANCH  27  31
BRANCH  28  33
ATOM     33  O10 UNL     1      23.829  -9.355 -40.138  0.00  0.00    +0.000 OA
ATOM     34  H17 UNL     1      23.776 -10.055 -39.437  0.00  0.00    +0.000 HD
ENDBRANCH  28  33
BRANCH  25  35
ATOM     35  C12 UNL     1      28.403  -9.774 -41.735  0.00  0.00    +0.000 C 
BRANCH  35  36
ATOM     36  O7  UNL     1      28.877  -9.530 -40.438  0.00  0.00    +0.000 OA
ATOM     37  H11 UNL     1      29.182 -10.403 -40.076  0.00  0.00    +0.000 HD
ENDBRANCH  35  36
ENDBRANCH  25  35
ENDBRANCH  22  23
ENDBRANCH   9  22
TORSDOF 10
ENDMDL
MODEL 8
REMARK VINA RESULT:    -5.310      3.822      6.920
REMARK INTER + INTRA:          -8.211
REMARK INTER:                  -7.438
REMARK INTRA:                  -0.773
REMARK UNBOUND:                -0.728
REMARK  Name = resultss/4CJN/ligands/lig_300_t0.pdb
REMARK  11 active torsions:
REMARK  status: ('A' for Active; 'I' for Inactive)
REMARK    1  A    between atoms: C1_1  and  O1_2
REMARK    2  A    between atoms: O1_2  and  C2_3
REMARK    3  A    between atoms: C4_5  and  O2_6
REMARK    4  A    between atoms: C8_11  and  O4_12
REMARK    5  A    between atoms: C9_13  and  O5_14
REMARK    6  A    between atoms: O5_14  and  C10_15
REMARK    7  A    between atoms: C11_17  and  C12_18
REMARK    8  A    between atoms: C12_18  and  O7_19
REMARK    9  A    between atoms: C13_20  and  O8_21
REMARK   10  A    between atoms: C14_22  and  O9_23
REMARK   11  A    between atoms: C15_24  and  O10_25
REMARK                            x       y       z     vdW  Elec       q    Type
REMARK                         _______ _______ _______ _____ _____    ______ ____
ROOT
ATOM      1  C2  UNL     1      33.028 -10.704 -32.077  0.00  0.00    +0.000 A 
ATOM      2  C3  UNL     1      33.787  -9.934 -32.970  0.00  0.00    +0.000 A 
ATOM      3  C4  UNL     1      33.183  -9.242 -34.027  0.00  0.00    +0.000 A 
ATOM      4  C5  UNL     1      31.760  -9.264 -34.168  0.00  0.00    +0.000 A 
ATOM      5  C6  UNL     1      31.030  -8.517 -35.130  0.00  0.00    +0.000 A 
ATOM      6  O3  UNL     1      31.637  -7.795 -35.961  0.00  0.00    +0.000 OA
ATOM      7  C7  UNL     1      29.614  -8.596 -35.168  0.00  0.00    +0.000 A 
ATOM      8  C8  UNL     1      28.791  -7.850 -36.067  0.00  0.00    +0.000 A 
ATOM      9  C9  UNL     1      27.411  -8.133 -36.146  0.00  0.00    +0.000 A 
ATOM     10  C16 UNL     1      26.828  -9.041 -35.261  0.00  0.00    +0.000 A 
ATOM     11  C17 UNL     1      27.607  -9.705 -34.321  0.00  0.00    +0.000 A 
ATOM     12  C18 UNL     1      28.988  -9.499 -34.274  0.00  0.00    +0.000 A 
ATOM     13  O11 UNL     1      29.695 -10.162 -33.373  0.00  0.00    +0.000 OA
ATOM     14  C19 UNL     1      31.012 -10.065 -33.267  0.00  0.00    +0.000 A 
ATOM     15  C20 UNL     1      31.647 -10.774 -32.244  0.00  0.00    +0.000 A 
ENDROOT
BRANCH   1  17
ATOM     16  C1  UNL     1      33.873 -12.816 -31.033  0.00  0.00    +0.000 C 
ATOM     17  O1  UNL     1      33.606 -11.416 -31.015  0.00  0.00    +0.000 OA
ENDBRANCH   1  17
BRANCH   3  18
ATOM     18  O2  UNL     1      34.051  -8.572 -34.895  0.00  0.00    +0.000 OA
ATOM     19  H5  UNL     1      34.987  -8.864 -35.127  0.00  0.00    +0.000 HD
ENDBRANCH   3  18
BRANCH   8  20
ATOM     20  O4  UNL     1      29.273  -6.792 -36.843  0.00  0.00    +0.000 OA
ATOM     21  H6  UNL     1      30.198  -6.398 -36.754  0.00  0.00    +0.000 HD
ENDBRANCH   8  20
BRANCH   9  22
ATOM     22  O5  UNL     1      26.585  -7.477 -37.066  0.00  0.00    +0.000 OA
BRANCH  22  23
ATOM     23  C10 UNL     1      26.427  -7.914 -38.415  0.00  0.00    +0.000 C 
ATOM     24  O6  UNL     1      27.563  -8.689 -38.774  0.00  0.00    +0.000 OA
ATOM     25  C11 UNL     1      27.430  -9.443 -39.979  0.00  0.00    +0.000 C 
ATOM     26  C13 UNL     1      26.164  -9.138 -40.833  0.00  0.00    +0.000 C 
ATOM     27  C14 UNL     1      24.877  -9.200 -39.974  0.00  0.00    +0.000 C 
ATOM     28  C15 UNL     1      25.128  -8.728 -38.517  0.00  0.00    +0.000 C 
BRANCH  26  29
ATOM     29  O8  UNL     1      26.314  -7.867 -41.421  0.00  0.00    +0.000 OA
ATOM     30  H13 UNL     1      26.926  -7.970 -42.198  0.00  0.00    +0.000 HD
ENDBRANCH  26  29
BRANCH  27  31
ATOM     31  O9  UNL     1      23.864  -8.439 -40.590  0.00  0.00    +0.000 OA
ATOM     32  H15 UNL     1      24.255  -8.037 -41.410  0.00  0.00    +0.000 HD
ENDBRANCH  27  31
BRANCH  28  33
ATOM     33  O10 UNL     1      24.054  -7.956 -38.041  0.00  0.00    +0.000 OA
ATOM     34  H17 UNL     1      24.158  -7.896 -37.056  0.00  0.00    +0.000 HD
ENDBRANCH  28  33
BRANCH  25  35
ATOM     35  C12 UNL     1      27.545 -10.941 -39.636  0.00  0.00    +0.000 C 
BRANCH  35  36
ATOM     36  O7  UNL     1      27.901 -11.126 -38.292  0.00  0.00    +0.000 OA
ATOM     37  H11 UNL     1      28.306 -12.030 -38.226  0.00  0.00    +0.000 HD
ENDBRANCH  35  36
ENDBRANCH  25  35
ENDBRANCH  22  23
ENDBRANCH   9  22
TORSDOF 10
ENDMDL
MODEL 9
REMARK VINA RESULT:    -5.250      3.780      5.673
REMARK INTER + INTRA:          -8.127
REMARK INTER:                  -7.257
REMARK INTRA:                  -0.870
REMARK UNBOUND:                -0.728
REMARK  Name = resultss/4CJN/ligands/lig_300_t0.pdb
REMARK  11 active torsions:
REMARK  status: ('A' for Active; 'I' for Inactive)
REMARK    1  A    between atoms: C1_1  and  O1_2
REMARK    2  A    between atoms: O1_2  and  C2_3
REMARK    3  A    between atoms: C4_5  and  O2_6
REMARK    4  A    between atoms: C8_11  and  O4_12
REMARK    5  A    between atoms: C9_13  and  O5_14
REMARK    6  A    between atoms: O5_14  and  C10_15
REMARK    7  A    between atoms: C11_17  and  C12_18
REMARK    8  A    between atoms: C12_18  and  O7_19
REMARK    9  A    between atoms: C13_20  and  O8_21
REMARK   10  A    between atoms: C14_22  and  O9_23
REMARK   11  A    between atoms: C15_24  and  O10_25
REMARK                            x       y       z     vdW  Elec       q    Type
REMARK                         _______ _______ _______ _____ _____    ______ ____
ROOT
ATOM      1  C2  UNL     1      25.282  -7.051 -44.494  0.00  0.00    +0.000 A 
ATOM      2  C3  UNL     1      24.495  -8.151 -44.123  0.00  0.00    +0.000 A 
ATOM      3  C4  UNL     1      24.769  -8.881 -42.960  0.00  0.00    +0.000 A 
ATOM      4  C5  UNL     1      25.830  -8.465 -42.095  0.00  0.00    +0.000 A 
ATOM      5  C6  UNL     1      26.130  -9.058 -40.840  0.00  0.00    +0.000 A 
ATOM      6  O3  UNL     1      25.464 -10.043 -40.432  0.00  0.00    +0.000 OA
ATOM      7  C7  UNL     1      27.194  -8.551 -40.050  0.00  0.00    +0.000 A 
ATOM      8  C8  UNL     1      27.543  -9.050 -38.757  0.00  0.00    +0.000 A 
ATOM      9  C9  UNL     1      28.725  -8.599 -38.133  0.00  0.00    +0.000 A 
ATOM     10  C16 UNL     1      29.479  -7.578 -38.710  0.00  0.00    +0.000 A 
ATOM     11  C17 UNL     1      29.097  -7.022 -39.926  0.00  0.00    +0.000 A 
ATOM     12  C18 UNL     1      27.973  -7.505 -40.601  0.00  0.00    +0.000 A 
ATOM     13  O11 UNL     1      27.651  -6.958 -41.762  0.00  0.00    +0.000 OA
ATOM     14  C19 UNL     1      26.627  -7.363 -42.498  0.00  0.00    +0.000 A 
ATOM     15  C20 UNL     1      26.352  -6.677 -43.683  0.00  0.00    +0.000 A 
ENDROOT
BRANCH   1  17
ATOM     16  C1  UNL     1      25.338  -6.754 -46.978  0.00  0.00    +0.000 C 
ATOM     17  O1  UNL     1      25.038  -6.307 -45.659  0.00  0.00    +0.000 OA
ENDBRANCH   1  17
BRANCH   3  18
ATOM     18  O2  UNL     1      23.962 -10.002 -42.737  0.00  0.00    +0.000 OA
ATOM     19  H5  UNL     1      24.250 -10.845 -42.268  0.00  0.00    +0.000 HD
ENDBRANCH   3  18
BRANCH   8  20
ATOM     20  O4  UNL     1      26.733  -9.930 -38.034  0.00  0.00    +0.000 OA
ATOM     21  H6  UNL     1      27.074 -10.566 -37.328  0.00  0.00    +0.000 HD
ENDBRANCH   8  20
BRANCH   9  22
ATOM     22  O5  UNL     1      29.142  -9.119 -36.901  0.00  0.00    +0.000 OA
BRANCH  22  23
ATOM     23  C10 UNL     1      28.702  -8.594 -35.650  0.00  0.00    +0.000 C 
ATOM     24  O6  UNL     1      27.283  -8.515 -35.666  0.00  0.00    +0.000 OA
ATOM     25  C11 UNL     1      26.671  -8.293 -34.396  0.00  0.00    +0.000 C 
ATOM     26  C13 UNL     1      27.640  -7.949 -33.228  0.00  0.00    +0.000 C 
ATOM     27  C14 UNL     1      28.795  -8.975 -33.133  0.00  0.00    +0.000 C 
ATOM     28  C15 UNL     1      29.208  -9.516 -34.528  0.00  0.00    +0.000 C 
BRANCH  26  29
ATOM     29  O8  UNL     1      28.140  -6.647 -33.427  0.00  0.00    +0.000 OA
ATOM     30  H13 UNL     1      27.866  -6.101 -32.642  0.00  0.00    +0.000 HD
ENDBRANCH  26  29
BRANCH  27  31
ATOM     31  O9  UNL     1      29.891  -8.390 -32.468  0.00  0.00    +0.000 OA
ATOM     32  H15 UNL     1      29.581  -7.521 -32.100  0.00  0.00    +0.000 HD
ENDBRANCH  27  31
BRANCH  28  33
ATOM     33  O10 UNL     1      30.603  -9.651 -34.629  0.00  0.00    +0.000 OA
ATOM     34  H17 UNL     1      30.810  -9.781 -35.591  0.00  0.00    +0.000 HD
ENDBRANCH  28  33
BRANCH  25  35
ATOM     35  C12 UNL     1      25.776  -9.502 -34.065  0.00  0.00    +0.000 C 
BRANCH  35  36
ATOM     36  O7  UNL     1      25.756 -10.421 -35.124  0.00  0.00    +0.000 OA
ATOM     37  H11 UNL     1      25.287 -11.231 -34.790  0.00  0.00    +0.000 HD
ENDBRANCH  35  36
ENDBRANCH  25  35
ENDBRANCH  22  23
ENDBRANCH   9  22
TORSDOF 10
ENDMDL
