MODEL 1
REMARK VINA RESULT:    -6.065      0.000      0.000
REMARK INTER + INTRA:          -8.247
REMARK INTER:                  -7.661
REMARK INTRA:                  -0.586
REMARK UNBOUND:                -0.586
REMARK  Name = resultss/4CJN/ligands/lig_168_t1.pdb
REMARK  5 active torsions:
REMARK  status: ('A' for Active; 'I' for Inactive)
REMARK    1  A    between atoms: O1_1  and  C1_2
REMARK    2  A    between atoms: C1_2  and  C7_11
REMARK    3  A    between atoms: N1_3  and  N2_4
REMARK    4  A    between atoms: C2_5  and  C3_6
REMARK    5  A    between atoms: C10_14  and  C11_15
REMARK                            x       y       z     vdW  Elec       q    Type
REMARK                         _______ _______ _______ _____ _____    ______ ____
ROOT
ATOM      1  C7  UNL     1      27.693  -9.222 -40.894  0.00  0.00    +0.000 A 
ATOM      2  C8  UNL     1      28.170 -10.511 -40.590  0.00  0.00    +0.000 A 
ATOM      3  C9  UNL     1      29.203 -11.082 -41.339  0.00  0.00    +0.000 A 
ATOM      4  C10 UNL     1      29.781 -10.381 -42.410  0.00  0.00    +0.000 A 
ATOM      5  C18 UNL     1      29.309  -9.092 -42.710  0.00  0.00    +0.000 A 
ATOM      6  C19 UNL     1      28.277  -8.520 -41.961  0.00  0.00    +0.000 A 
ENDROOT
BRANCH   4   7
ATOM      7  C11 UNL     1      30.865 -11.002 -43.207  0.00  0.00    +0.000 A 
ATOM      8  N3  UNL     1      31.567 -10.329 -44.155  0.00  0.00    +0.000 NA
ATOM      9  C12 UNL     1      32.512 -11.118 -44.725  0.00  0.00    +0.000 A 
ATOM     10  C13 UNL     1      33.385 -10.703 -45.733  0.00  0.00    +0.000 A 
ATOM     11  C14 UNL     1      34.323 -11.622 -46.234  0.00  0.00    +0.000 A 
ATOM     12  C15 UNL     1      34.380 -12.935 -45.724  0.00  0.00    +0.000 A 
ATOM     13  C16 UNL     1      33.496 -13.343 -44.713  0.00  0.00    +0.000 A 
ATOM     14  C17 UNL     1      32.574 -12.414 -44.236  0.00  0.00    +0.000 A 
ATOM     15  S1  UNL     1      31.407 -12.605 -43.049  0.00  0.00    +0.000 S 
ENDBRANCH   4   7
BRANCH   1  16
ATOM     16  C1  UNL     1      26.588  -8.612 -40.115  0.00  0.00    +0.000 C 
ATOM     17  N1  UNL     1      26.083  -9.249 -39.102  0.00  0.00    +0.000 NA
BRANCH  16  18
ATOM     18  O1  UNL     1      26.103  -7.353 -40.484  0.00  0.00    +0.000 OA
ATOM     19  H1  UNL     1      25.135  -7.084 -40.365  0.00  0.00    +0.000 HD
ENDBRANCH  16  18
BRANCH  17  20
ATOM     20  N2  UNL     1      25.031  -8.728 -38.334  0.00  0.00    +0.000 NA
ATOM     21  C2  UNL     1      25.119  -8.550 -37.050  0.00  0.00    +0.000 C 
BRANCH  21  22
ATOM     22  C3  UNL     1      26.328  -8.868 -36.270  0.00  0.00    +0.000 A 
ATOM     23  C4  UNL     1      27.265  -7.944 -35.853  0.00  0.00    +0.000 A 
ATOM     24  C5  UNL     1      28.217  -8.663 -35.163  0.00  0.00    +0.000 A 
ATOM     25  C6  UNL     1      27.806  -9.980 -35.205  0.00  0.00    +0.000 A 
ATOM     26  O2  UNL     1      26.678 -10.070 -35.870  0.00  0.00    +0.000 OA
ENDBRANCH  21  22
ENDBRANCH  17  20
ENDBRANCH   1  16
TORSDOF 5
ENDMDL
MODEL 2
REMARK VINA RESULT:    -6.058      1.773      2.171
REMARK INTER + INTRA:          -8.238
REMARK INTER:                  -7.801
REMARK INTRA:                  -0.437
REMARK UNBOUND:                -0.586
REMARK  Name = resultss/4CJN/ligands/lig_168_t1.pdb
REMARK  5 active torsions:
REMARK  status: ('A' for Active; 'I' for Inactive)
REMARK    1  A    between atoms: O1_1  and  C1_2
REMARK    2  A    between atoms: C1_2  and  C7_11
REMARK    3  A    between atoms: N1_3  and  N2_4
REMARK    4  A    between atoms: C2_5  and  C3_6
REMARK    5  A    between atoms: C10_14  and  C11_15
REMARK                            x       y       z     vdW  Elec       q    Type
REMARK                         _______ _______ _______ _____ _____    ______ ____
ROOT
ATOM      1  C7  UNL     1      28.578 -10.025 -39.382  0.00  0.00    +0.000 A 
ATOM      2  C8  UNL     1      29.923  -9.618 -39.461  0.00  0.00    +0.000 A 
ATOM      3  C9  UNL     1      30.725 -10.017 -40.535  0.00  0.00    +0.000 A 
ATOM      4  C10 UNL     1      30.202 -10.831 -41.553  0.00  0.00    +0.000 A 
ATOM      5  C18 UNL     1      28.858 -11.233 -41.477  0.00  0.00    +0.000 A 
ATOM      6  C19 UNL     1      28.056 -10.834 -40.404  0.00  0.00    +0.000 A 
ENDROOT
BRANCH   4   7
ATOM      7  C11 UNL     1      31.065 -11.260 -42.678  0.00  0.00    +0.000 A 
ATOM      8  N3  UNL     1      31.671 -10.386 -43.523  0.00  0.00    +0.000 NA
ATOM      9  C12 UNL     1      32.416 -11.033 -44.455  0.00  0.00    +0.000 A 
ATOM     10  C13 UNL     1      33.151 -10.398 -45.458  0.00  0.00    +0.000 A 
ATOM     11  C14 UNL     1      33.887 -11.188 -46.358  0.00  0.00    +0.000 A 
ATOM     12  C15 UNL     1      33.882 -12.594 -46.245  0.00  0.00    +0.000 A 
ATOM     13  C16 UNL     1      33.137 -13.221 -45.233  0.00  0.00    +0.000 A 
ATOM     14  C17 UNL     1      32.415 -12.415 -44.357  0.00  0.00    +0.000 A 
ATOM     15  S1  UNL     1      31.445 -12.870 -43.067  0.00  0.00    +0.000 S 
ENDBRANCH   4   7
BRANCH   1  16
ATOM     16  C1  UNL     1      27.722  -9.620 -38.240  0.00  0.00    +0.000 C 
ATOM     17  N1  UNL     1      27.667 -10.366 -37.178  0.00  0.00    +0.000 NA
BRANCH  16  18
ATOM     18  O1  UNL     1      26.983  -8.436 -38.323  0.00  0.00    +0.000 OA
ATOM     19  H1  UNL     1      26.951  -7.869 -39.161  0.00  0.00    +0.000 HD
ENDBRANCH  16  18
BRANCH  17  20
ATOM     20  N2  UNL     1      26.869 -10.041 -36.071  0.00  0.00    +0.000 NA
ATOM     21  C2  UNL     1      27.367  -9.680 -34.927  0.00  0.00    +0.000 C 
BRANCH  21  22
ATOM     22  C3  UNL     1      28.814  -9.566 -34.673  0.00  0.00    +0.000 A 
ATOM     23  C4  UNL     1      29.664  -8.693 -35.321  0.00  0.00    +0.000 A 
ATOM     24  C5  UNL     1      30.912  -8.918 -34.783  0.00  0.00    +0.000 A 
ATOM     25  C6  UNL     1      30.749  -9.918 -33.845  0.00  0.00    +0.000 A 
ATOM     26  O2  UNL     1      29.489 -10.283 -33.802  0.00  0.00    +0.000 OA
ENDBRANCH  21  22
ENDBRANCH  17  20
ENDBRANCH   1  16
TORSDOF 5
ENDMDL
MODEL 3
REMARK VINA RESULT:    -5.994      1.590      2.014
REMARK INTER + INTRA:          -8.156
REMARK INTER:                  -7.704
REMARK INTRA:                  -0.452
REMARK UNBOUND:                -0.586
REMARK  Name = resultss/4CJN/ligands/lig_168_t1.pdb
REMARK  5 active torsions:
REMARK  status: ('A' for Active; 'I' for Inactive)
REMARK    1  A    between atoms: O1_1  and  C1_2
REMARK    2  A    between atoms: C1_2  and  C7_11
REMARK    3  A    between atoms: N1_3  and  N2_4
REMARK    4  A    between atoms: C2_5  and  C3_6
REMARK    5  A    between atoms: C10_14  and  C11_15
REMARK                            x       y       z     vdW  Elec       q    Type
REMARK                         _______ _______ _______ _____ _____    ______ ____
ROOT
ATOM      1  C7  UNL     1      26.728  -9.537 -40.040  0.00  0.00    +0.000 A 
ATOM      2  C8  UNL     1      26.817  -9.605 -41.443  0.00  0.00    +0.000 A 
ATOM      3  C9  UNL     1      28.004 -10.006 -42.062  0.00  0.00    +0.000 A 
ATOM      4  C10 UNL     1      29.130 -10.345 -41.295  0.00  0.00    +0.000 A 
ATOM      5  C18 UNL     1      29.041 -10.284 -39.894  0.00  0.00    +0.000 A 
ATOM      6  C19 UNL     1      27.853  -9.884 -39.274  0.00  0.00    +0.000 A 
ENDROOT
BRANCH   4   7
ATOM      7  C11 UNL     1      30.389 -10.754 -41.962  0.00  0.00    +0.000 A 
ATOM      8  N3  UNL     1      30.457 -11.778 -42.852  0.00  0.00    +0.000 NA
ATOM      9  C12 UNL     1      31.718 -11.936 -43.329  0.00  0.00    +0.000 A 
ATOM     10  C13 UNL     1      32.096 -12.909 -44.256  0.00  0.00    +0.000 A 
ATOM     11  C14 UNL     1      33.438 -12.960 -44.672  0.00  0.00    +0.000 A 
ATOM     12  C15 UNL     1      34.380 -12.043 -44.162  0.00  0.00    +0.000 A 
ATOM     13  C16 UNL     1      33.989 -11.070 -43.229  0.00  0.00    +0.000 A 
ATOM     14  C17 UNL     1      32.655 -11.043 -42.831  0.00  0.00    +0.000 A 
ATOM     15  S1  UNL     1      31.902 -10.011 -41.746  0.00  0.00    +0.000 S 
ENDBRANCH   4   7
BRANCH   1  16
ATOM     16  C1  UNL     1      25.478  -9.100 -39.372  0.00  0.00    +0.000 C 
ATOM     17  N1  UNL     1      25.530  -8.566 -38.189  0.00  0.00    +0.000 NA
BRANCH  16  18
ATOM     18  O1  UNL     1      24.255  -9.270 -40.028  0.00  0.00    +0.000 OA
ATOM     19  H1  UNL     1      24.183  -9.654 -40.962  0.00  0.00    +0.000 HD
ENDBRANCH  16  18
BRANCH  17  20
ATOM     20  N2  UNL     1      24.382  -8.142 -37.503  0.00  0.00    +0.000 NA
ATOM     21  C2  UNL     1      24.287  -8.165 -36.208  0.00  0.00    +0.000 C 
BRANCH  21  22
ATOM     22  C3  UNL     1      25.373  -8.628 -35.325  0.00  0.00    +0.000 A 
ATOM     23  C4  UNL     1      26.031  -7.841 -34.403  0.00  0.00    +0.000 A 
ATOM     24  C5  UNL     1      26.959  -8.665 -33.803  0.00  0.00    +0.000 A 
ATOM     25  C6  UNL     1      26.812  -9.902 -34.399  0.00  0.00    +0.000 A 
ATOM     26  O2  UNL     1      25.860  -9.848 -35.301  0.00  0.00    +0.000 OA
ENDBRANCH  21  22
ENDBRANCH  17  20
ENDBRANCH   1  16
TORSDOF 5
ENDMDL
MODEL 4
REMARK VINA RESULT:    -5.908      5.301      7.608
REMARK INTER + INTRA:          -8.049
REMARK INTER:                  -7.447
REMARK INTRA:                  -0.601
REMARK UNBOUND:                -0.586
REMARK  Name = resultss/4CJN/ligands/lig_168_t1.pdb
REMARK  5 active torsions:
REMARK  status: ('A' for Active; 'I' for Inactive)
REMARK    1  A    between atoms: O1_1  and  C1_2
REMARK    2  A    between atoms: C1_2  and  C7_11
REMARK    3  A    between atoms: N1_3  and  N2_4
REMARK    4  A    between atoms: C2_5  and  C3_6
REMARK    5  A    between atoms: C10_14  and  C11_15
REMARK                            x       y       z     vdW  Elec       q    Type
REMARK                         _______ _______ _______ _____ _____    ______ ____
ROOT
ATOM      1  C7  UNL     1      26.730  -9.621 -39.157  0.00  0.00    +0.000 A 
ATOM      2  C8  UNL     1      26.774 -10.134 -40.467  0.00  0.00    +0.000 A 
ATOM      3  C9  UNL     1      25.911  -9.647 -41.452  0.00  0.00    +0.000 A 
ATOM      4  C10 UNL     1      24.982  -8.638 -41.152  0.00  0.00    +0.000 A 
ATOM      5  C18 UNL     1      24.940  -8.121 -39.846  0.00  0.00    +0.000 A 
ATOM      6  C19 UNL     1      25.804  -8.607 -38.860  0.00  0.00    +0.000 A 
ENDROOT
BRANCH   4   7
ATOM      7  C11 UNL     1      24.061  -8.139 -42.199  0.00  0.00    +0.000 A 
ATOM      8  N3  UNL     1      22.762  -7.826 -41.957  0.00  0.00    +0.000 NA
ATOM      9  C12 UNL     1      22.142  -7.378 -43.079  0.00  0.00    +0.000 A 
ATOM     10  C13 UNL     1      20.804  -6.984 -43.138  0.00  0.00    +0.000 A 
ATOM     11  C14 UNL     1      20.287  -6.533 -44.365  0.00  0.00    +0.000 A 
ATOM     12  C15 UNL     1      21.108  -6.478 -45.510  0.00  0.00    +0.000 A 
ATOM     13  C16 UNL     1      22.452  -6.879 -45.439  0.00  0.00    +0.000 A 
ATOM     14  C17 UNL     1      22.938  -7.325 -44.212  0.00  0.00    +0.000 A 
ATOM     15  S1  UNL     1      24.478  -7.861 -43.823  0.00  0.00    +0.000 S 
ENDBRANCH   4   7
BRANCH   1  16
ATOM     16  C1  UNL     1      27.631 -10.141 -38.100  0.00  0.00    +0.000 C 
ATOM     17  N1  UNL     1      28.049  -9.347 -37.160  0.00  0.00    +0.000 NA
BRANCH  16  18
ATOM     18  O1  UNL     1      28.021 -11.483 -38.131  0.00  0.00    +0.000 OA
ATOM     19  H1  UNL     1      27.428 -12.233 -37.798  0.00  0.00    +0.000 HD
ENDBRANCH  16  18
BRANCH  17  20
ATOM     20  N2  UNL     1      28.910  -9.777 -36.140  0.00  0.00    +0.000 NA
ATOM     21  C2  UNL     1      28.531  -9.898 -34.903  0.00  0.00    +0.000 C 
BRANCH  21  22
ATOM     22  C3  UNL     1      27.161  -9.604 -34.444  0.00  0.00    +0.000 A 
ATOM     23  C4  UNL     1      26.756  -8.413 -33.878  0.00  0.00    +0.000 A 
ATOM     24  C5  UNL     1      25.415  -8.567 -33.602  0.00  0.00    +0.000 A 
ATOM     25  C6  UNL     1      25.085  -9.843 -34.012  0.00  0.00    +0.000 A 
ATOM     26  O2  UNL     1      26.146 -10.436 -34.510  0.00  0.00    +0.000 OA
ENDBRANCH  21  22
ENDBRANCH  17  20
ENDBRANCH   1  16
TORSDOF 5
ENDMDL
MODEL 5
REMARK VINA RESULT:    -5.848      4.442      5.521
REMARK INTER + INTRA:          -7.972
REMARK INTER:                  -7.478
REMARK INTRA:                  -0.494
REMARK UNBOUND:                -0.586
REMARK  Name = resultss/4CJN/ligands/lig_168_t1.pdb
REMARK  5 active torsions:
REMARK  status: ('A' for Active; 'I' for Inactive)
REMARK    1  A    between atoms: O1_1  and  C1_2
REMARK    2  A    between atoms: C1_2  and  C7_11
REMARK    3  A    between atoms: N1_3  and  N2_4
REMARK    4  A    between atoms: C2_5  and  C3_6
REMARK    5  A    between atoms: C10_14  and  C11_15
REMARK                            x       y       z     vdW  Elec       q    Type
REMARK                         _______ _______ _______ _____ _____    ______ ____
ROOT
ATOM      1  C7  UNL     1      27.273  -9.388 -37.993  0.00  0.00    +0.000 A 
ATOM      2  C8  UNL     1      27.606 -10.312 -39.002  0.00  0.00    +0.000 A 
ATOM      3  C9  UNL     1      27.608  -9.927 -40.345  0.00  0.00    +0.000 A 
ATOM      4  C10 UNL     1      27.276  -8.613 -40.713  0.00  0.00    +0.000 A 
ATOM      5  C18 UNL     1      26.950  -7.689 -39.706  0.00  0.00    +0.000 A 
ATOM      6  C19 UNL     1      26.948  -8.073 -38.361  0.00  0.00    +0.000 A 
ENDROOT
BRANCH   4   7
ATOM      7  C11 UNL     1      27.267  -8.220 -42.141  0.00  0.00    +0.000 A 
ATOM      8  N3  UNL     1      26.133  -7.893 -42.813  0.00  0.00    +0.000 NA
ATOM      9  C12 UNL     1      26.399  -7.555 -44.100  0.00  0.00    +0.000 A 
ATOM     10  C13 UNL     1      25.432  -7.176 -45.034  0.00  0.00    +0.000 A 
ATOM     11  C14 UNL     1      25.845  -6.844 -46.336  0.00  0.00    +0.000 A 
ATOM     12  C15 UNL     1      27.209  -6.893 -46.687  0.00  0.00    +0.000 A 
ATOM     13  C16 UNL     1      28.173  -7.277 -45.741  0.00  0.00    +0.000 A 
ATOM     14  C17 UNL     1      27.737  -7.604 -44.459  0.00  0.00    +0.000 A 
ATOM     15  S1  UNL     1      28.640  -8.092 -43.134  0.00  0.00    +0.000 S 
ENDBRANCH   4   7
BRANCH   1  16
ATOM     16  C1  UNL     1      27.254  -9.789 -36.565  0.00  0.00    +0.000 C 
ATOM     17  N1  UNL     1      26.119  -9.911 -35.943  0.00  0.00    +0.000 NA
BRANCH  16  18
ATOM     18  O1  UNL     1      28.462 -10.031 -35.904  0.00  0.00    +0.000 OA
ATOM     19  H1  UNL     1      29.195  -9.337 -35.834  0.00  0.00    +0.000 HD
ENDBRANCH  16  18
BRANCH  17  20
ATOM     20  N2  UNL     1      26.037 -10.277 -34.592  0.00  0.00    +0.000 NA
ATOM     21  C2  UNL     1      25.279  -9.656 -33.739  0.00  0.00    +0.000 C 
BRANCH  21  22
ATOM     22  C3  UNL     1      24.425  -8.511 -34.100  0.00  0.00    +0.000 A 
ATOM     23  C4  UNL     1      23.045  -8.528 -34.116  0.00  0.00    +0.000 A 
ATOM     24  C5  UNL     1      22.660  -7.265 -34.506  0.00  0.00    +0.000 A 
ATOM     25  C6  UNL     1      23.826  -6.555 -34.709  0.00  0.00    +0.000 A 
ATOM     26  O2  UNL     1      24.860  -7.324 -34.459  0.00  0.00    +0.000 OA
ENDBRANCH  21  22
ENDBRANCH  17  20
ENDBRANCH   1  16
TORSDOF 5
ENDMDL
MODEL 6
REMARK VINA RESULT:    -5.723      5.217      7.038
REMARK INTER + INTRA:          -7.815
REMARK INTER:                  -7.202
REMARK INTRA:                  -0.613
REMARK UNBOUND:                -0.586
REMARK  Name = resultss/4CJN/ligands/lig_168_t1.pdb
REMARK  5 active torsions:
REMARK  status: ('A' for Active; 'I' for Inactive)
REMARK    1  A    between atoms: O1_1  and  C1_2
REMARK    2  A    between atoms: C1_2  and  C7_11
REMARK    3  A    between atoms: N1_3  and  N2_4
REMARK    4  A    between atoms: C2_5  and  C3_6
REMARK    5  A    between atoms: C10_14  and  C11_15
REMARK                            x       y       z     vdW  Elec       q    Type
REMARK                         _______ _______ _______ _____ _____    ______ ____
ROOT
ATOM      1  C7  UNL     1      26.855  -9.689 -39.256  0.00  0.00    +0.000 A 
ATOM      2  C8  UNL     1      25.832  -8.752 -39.019  0.00  0.00    +0.000 A 
ATOM      3  C9  UNL     1      25.053  -8.267 -40.073  0.00  0.00    +0.000 A 
ATOM      4  C10 UNL     1      25.280  -8.704 -41.388  0.00  0.00    +0.000 A 
ATOM      5  C18 UNL     1      26.298  -9.643 -41.626  0.00  0.00    +0.000 A 
ATOM      6  C19 UNL     1      27.076 -10.129 -40.571  0.00  0.00    +0.000 A 
ENDROOT
BRANCH   4   7
ATOM      7  C11 UNL     1      24.459  -8.172 -42.501  0.00  0.00    +0.000 A 
ATOM      8  N3  UNL     1      24.916  -8.067 -43.775  0.00  0.00    +0.000 NA
ATOM      9  C12 UNL     1      23.964  -7.566 -44.604  0.00  0.00    +0.000 A 
ATOM     10  C13 UNL     1      24.144  -7.343 -45.970  0.00  0.00    +0.000 A 
ATOM     11  C14 UNL     1      23.071  -6.824 -46.716  0.00  0.00    +0.000 A 
ATOM     12  C15 UNL     1      21.839  -6.539 -46.093  0.00  0.00    +0.000 A 
ATOM     13  C16 UNL     1      21.670  -6.765 -44.718  0.00  0.00    +0.000 A 
ATOM     14  C17 UNL     1      22.750  -7.276 -44.002  0.00  0.00    +0.000 A 
ATOM     15  S1  UNL     1      22.848  -7.646 -42.369  0.00  0.00    +0.000 S 
ENDBRANCH   4   7
BRANCH   1  16
ATOM     16  C1  UNL     1      27.697 -10.200 -38.147  0.00  0.00    +0.000 C 
ATOM     17  N1  UNL     1      28.113  -9.386 -37.223  0.00  0.00    +0.000 NA
BRANCH  16  18
ATOM     18  O1  UNL     1      28.033 -11.557 -38.110  0.00  0.00    +0.000 OA
ATOM     19  H1  UNL     1      28.944 -11.887 -37.818  0.00  0.00    +0.000 HD
ENDBRANCH  16  18
BRANCH  17  20
ATOM     20  N2  UNL     1      28.918  -9.808 -36.156  0.00  0.00    +0.000 NA
ATOM     21  C2  UNL     1      28.530  -9.757 -34.917  0.00  0.00    +0.000 C 
BRANCH  21  22
ATOM     22  C3  UNL     1      27.205  -9.259 -34.505  0.00  0.00    +0.000 A 
ATOM     23  C4  UNL     1      26.080 -10.043 -34.348  0.00  0.00    +0.000 A 
ATOM     24  C5  UNL     1      25.077  -9.183 -33.959  0.00  0.00    +0.000 A 
ATOM     25  C6  UNL     1      25.649  -7.927 -33.905  0.00  0.00    +0.000 A 
ATOM     26  O2  UNL     1      26.917  -8.005 -34.236  0.00  0.00    +0.000 OA
ENDBRANCH  21  22
ENDBRANCH  17  20
ENDBRANCH   1  16
TORSDOF 5
ENDMDL
MODEL 7
REMARK VINA RESULT:    -5.600      4.939      8.407
REMARK INTER + INTRA:          -7.660
REMARK INTER:                  -7.358
REMARK INTRA:                  -0.302
REMARK UNBOUND:                -0.586
REMARK  Name = resultss/4CJN/ligands/lig_168_t1.pdb
REMARK  5 active torsions:
REMARK  status: ('A' for Active; 'I' for Inactive)
REMARK    1  A    between atoms: O1_1  and  C1_2
REMARK    2  A    between atoms: C1_2  and  C7_11
REMARK    3  A    between atoms: N1_3  and  N2_4
REMARK    4  A    between atoms: C2_5  and  C3_6
REMARK    5  A    between atoms: C10_14  and  C11_15
REMARK                            x       y       z     vdW  Elec       q    Type
REMARK                         _______ _______ _______ _____ _____    ______ ____
ROOT
ATOM      1  C7  UNL     1      25.386  -9.100 -41.462  0.00  0.00    +0.000 A 
ATOM      2  C8  UNL     1      26.721  -9.536 -41.554  0.00  0.00    +0.000 A 
ATOM      3  C9  UNL     1      27.519  -9.631 -40.410  0.00  0.00    +0.000 A 
ATOM      4  C10 UNL     1      27.004  -9.291 -39.149  0.00  0.00    +0.000 A 
ATOM      5  C18 UNL     1      25.669  -8.861 -39.055  0.00  0.00    +0.000 A 
ATOM      6  C19 UNL     1      24.871  -8.766 -40.199  0.00  0.00    +0.000 A 
ENDROOT
BRANCH   4   7
ATOM      7  C11 UNL     1      27.862  -9.382 -37.946  0.00  0.00    +0.000 A 
ATOM      8  N3  UNL     1      27.367  -9.543 -36.692  0.00  0.00    +0.000 NA
ATOM      9  C12 UNL     1      28.362  -9.613 -35.771  0.00  0.00    +0.000 A 
ATOM     10  C13 UNL     1      28.158  -9.775 -34.399  0.00  0.00    +0.000 A 
ATOM     11  C14 UNL     1      29.279  -9.838 -33.553  0.00  0.00    +0.000 A 
ATOM     12  C15 UNL     1      30.582  -9.742 -34.084  0.00  0.00    +0.000 A 
ATOM     13  C16 UNL     1      30.775  -9.578 -35.465  0.00  0.00    +0.000 A 
ATOM     14  C17 UNL     1      29.647  -9.515 -36.280  0.00  0.00    +0.000 A 
ATOM     15  S1  UNL     1      29.561  -9.326 -37.944  0.00  0.00    +0.000 S 
ENDBRANCH   4   7
BRANCH   1  16
ATOM     16  C1  UNL     1      24.535  -8.981 -42.670  0.00  0.00    +0.000 C 
ATOM     17  N1  UNL     1      24.677  -7.962 -43.464  0.00  0.00    +0.000 NA
BRANCH  16  18
ATOM     18  O1  UNL     1      23.586  -9.972 -42.940  0.00  0.00    +0.000 OA
ATOM     19  H1  UNL     1      22.618  -9.760 -43.145  0.00  0.00    +0.000 HD
ENDBRANCH  16  18
BRANCH  17  20
ATOM     20  N2  UNL     1      23.896  -7.790 -44.615  0.00  0.00    +0.000 NA
ATOM     21  C2  UNL     1      24.374  -7.317 -45.727  0.00  0.00    +0.000 C 
BRANCH  21  22
ATOM     22  C3  UNL     1      25.783  -6.920 -45.897  0.00  0.00    +0.000 A 
ATOM     23  C4  UNL     1      26.421  -5.936 -45.170  0.00  0.00    +0.000 A 
ATOM     24  C5  UNL     1      27.712  -5.895 -45.648  0.00  0.00    +0.000 A 
ATOM     25  C6  UNL     1      27.783  -6.853 -46.639  0.00  0.00    +0.000 A 
ATOM     26  O2  UNL     1      26.619  -7.447 -46.764  0.00  0.00    +0.000 OA
ENDBRANCH  21  22
ENDBRANCH  17  20
ENDBRANCH   1  16
TORSDOF 5
ENDMDL
MODEL 8
REMARK VINA RESULT:    -5.449      5.254      7.764
REMARK INTER + INTRA:          -7.468
REMARK INTER:                  -6.843
REMARK INTRA:                  -0.625
REMARK UNBOUND:                -0.586
REMARK  Name = resultss/4CJN/ligands/lig_168_t1.pdb
REMARK  5 active torsions:
REMARK  status: ('A' for Active; 'I' for Inactive)
REMARK    1  A    between atoms: O1_1  and  C1_2
REMARK    2  A    between atoms: C1_2  and  C7_11
REMARK    3  A    between atoms: N1_3  and  N2_4
REMARK    4  A    between atoms: C2_5  and  C3_6
REMARK    5  A    between atoms: C10_14  and  C11_15
REMARK                            x       y       z     vdW  Elec       q    Type
REMARK                         _______ _______ _______ _____ _____    ______ ____
ROOT
ATOM      1  C7  UNL     1      28.642  -9.478 -34.694  0.00  0.00    +0.000 A 
ATOM      2  C8  UNL     1      27.235  -9.471 -34.748  0.00  0.00    +0.000 A 
ATOM      3  C9  UNL     1      26.571  -9.370 -35.973  0.00  0.00    +0.000 A 
ATOM      4  C10 UNL     1      27.294  -9.271 -37.172  0.00  0.00    +0.000 A 
ATOM      5  C18 UNL     1      28.698  -9.284 -37.121  0.00  0.00    +0.000 A 
ATOM      6  C19 UNL     1      29.364  -9.385 -35.895  0.00  0.00    +0.000 A 
ENDROOT
BRANCH   4   7
ATOM      7  C11 UNL     1      26.580  -9.149 -38.464  0.00  0.00    +0.000 A 
ATOM      8  N3  UNL     1      27.110  -9.557 -39.646  0.00  0.00    +0.000 NA
ATOM      9  C12 UNL     1      26.247  -9.350 -40.674  0.00  0.00    +0.000 A 
ATOM     10  C13 UNL     1      26.517  -9.667 -42.007  0.00  0.00    +0.000 A 
ATOM     11  C14 UNL     1      25.531  -9.406 -42.975  0.00  0.00    +0.000 A 
ATOM     12  C15 UNL     1      24.297  -8.836 -42.602  0.00  0.00    +0.000 A 
ATOM     13  C16 UNL     1      24.038  -8.518 -41.259  0.00  0.00    +0.000 A 
ATOM     14  C17 UNL     1      25.032  -8.785 -40.321  0.00  0.00    +0.000 A 
ATOM     15  S1  UNL     1      25.014  -8.519 -38.666  0.00  0.00    +0.000 S 
ENDBRANCH   4   7
BRANCH   1  16
ATOM     16  C1  UNL     1      29.358  -9.571 -33.399  0.00  0.00    +0.000 C 
ATOM     17  N1  UNL     1      30.332 -10.420 -33.258  0.00  0.00    +0.000 NA
BRANCH  16  18
ATOM     18  O1  UNL     1      28.973  -8.740 -32.342  0.00  0.00    +0.000 OA
ATOM     19  H1  UNL     1      28.005  -8.592 -32.087  0.00  0.00    +0.000 HD
ENDBRANCH  16  18
BRANCH  17  20
ATOM     20  N2  UNL     1      31.040 -10.560 -32.055  0.00  0.00    +0.000 NA
ATOM     21  C2  UNL     1      32.285 -10.214 -31.927  0.00  0.00    +0.000 C 
BRANCH  21  22
ATOM     22  C3  UNL     1      33.081  -9.633 -33.024  0.00  0.00    +0.000 A 
ATOM     23  C4  UNL     1      33.246  -8.282 -33.251  0.00  0.00    +0.000 A 
ATOM     24  C5  UNL     1      34.053  -8.186 -34.363  0.00  0.00    +0.000 A 
ATOM     25  C6  UNL     1      34.326  -9.483 -34.750  0.00  0.00    +0.000 A 
ATOM     26  O2  UNL     1      33.734 -10.322 -33.933  0.00  0.00    +0.000 OA
ENDBRANCH  21  22
ENDBRANCH  17  20
ENDBRANCH   1  16
TORSDOF 5
ENDMDL
MODEL 9
REMARK VINA RESULT:    -5.436      3.797      9.937
REMARK INTER + INTRA:          -7.451
REMARK INTER:                  -7.167
REMARK INTRA:                  -0.284
REMARK UNBOUND:                -0.586
REMARK  Name = resultss/4CJN/ligands/lig_168_t1.pdb
REMARK  5 active torsions:
REMARK  status: ('A' for Active; 'I' for Inactive)
REMARK    1  A    between atoms: O1_1  and  C1_2
REMARK    2  A    between atoms: C1_2  and  C7_11
REMARK    3  A    between atoms: N1_3  and  N2_4
REMARK    4  A    between atoms: C2_5  and  C3_6
REMARK    5  A    between atoms: C10_14  and  C11_15
REMARK                            x       y       z     vdW  Elec       q    Type
REMARK                         _______ _______ _______ _____ _____    ______ ____
ROOT
ATOM      1  C7  UNL     1      30.793  -9.560 -38.112  0.00  0.00    +0.000 A 
ATOM      2  C8  UNL     1      29.685  -9.209 -38.906  0.00  0.00    +0.000 A 
ATOM      3  C9  UNL     1      28.433  -8.990 -38.324  0.00  0.00    +0.000 A 
ATOM      4  C10 UNL     1      28.258  -9.117 -36.936  0.00  0.00    +0.000 A 
ATOM      5  C18 UNL     1      29.365  -9.461 -36.142  0.00  0.00    +0.000 A 
ATOM      6  C19 UNL     1      30.617  -9.680 -36.723  0.00  0.00    +0.000 A 
ENDROOT
BRANCH   4   7
ATOM      7  C11 UNL     1      26.924  -8.898 -36.331  0.00  0.00    +0.000 A 
ATOM      8  N3  UNL     1      26.607  -9.291 -35.071  0.00  0.00    +0.000 NA
ATOM      9  C12 UNL     1      25.330  -8.957 -34.753  0.00  0.00    +0.000 A 
ATOM     10  C13 UNL     1      24.723  -9.236 -33.527  0.00  0.00    +0.000 A 
ATOM     11  C14 UNL     1      23.393  -8.828 -33.325  0.00  0.00    +0.000 A 
ATOM     12  C15 UNL     1      22.691  -8.150 -34.343  0.00  0.00    +0.000 A 
ATOM     13  C16 UNL     1      23.311  -7.877 -35.573  0.00  0.00    +0.000 A 
ATOM     14  C17 UNL     1      24.628  -8.295 -35.748  0.00  0.00    +0.000 A 
ATOM     15  S1  UNL     1      25.619  -8.114 -37.088  0.00  0.00    +0.000 S 
ENDBRANCH   4   7
BRANCH   1  16
ATOM     16  C1  UNL     1      32.122  -9.809 -38.720  0.00  0.00    +0.000 C 
ATOM     17  N1  UNL     1      32.431  -9.248 -39.851  0.00  0.00    +0.000 NA
BRANCH  16  18
ATOM     18  O1  UNL     1      33.030 -10.647 -38.065  0.00  0.00    +0.000 OA
ATOM     19  H1  UNL     1      33.802 -11.095 -38.541  0.00  0.00    +0.000 HD
ENDBRANCH  16  18
BRANCH  17  20
ATOM     20  N2  UNL     1      33.668  -9.453 -40.479  0.00  0.00    +0.000 NA
ATOM     21  C2  UNL     1      33.798 -10.155 -41.565  0.00  0.00    +0.000 C 
BRANCH  21  22
ATOM     22  C3  UNL     1      32.664 -10.800 -42.252  0.00  0.00    +0.000 A 
ATOM     23  C4  UNL     1      32.714 -12.031 -42.874  0.00  0.00    +0.000 A 
ATOM     24  C5  UNL     1      31.451 -12.246 -43.378  0.00  0.00    +0.000 A 
ATOM     25  C6  UNL     1      30.709 -11.133 -43.038  0.00  0.00    +0.000 A 
ATOM     26  O2  UNL     1      31.459 -10.289 -42.367  0.00  0.00    +0.000 OA
ENDBRANCH  21  22
ENDBRANCH  17  20
ENDBRANCH   1  16
TORSDOF 5
ENDMDL
