MODEL 1
REMARK VINA RESULT:    -7.022      0.000      0.000
REMARK INTER + INTRA:         -13.407
REMARK INTER:                 -11.128
REMARK INTRA:                  -2.280
REMARK UNBOUND:                -2.280
REMARK  Name = resultss/4CJN/ligands/lig_338_t0.pdb
REMARK  11 active torsions:
REMARK  status: ('A' for Active; 'I' for Inactive)
REMARK    1  A    between atoms: C1_1  and  O1_2
REMARK    2  A    between atoms: O1_2  and  C2_3
REMARK    3  A    between atoms: C4_5  and  C5_6
REMARK    4  A    between atoms: N2_16  and  N3_17
REMARK    5  A    between atoms: N3_17  and  C13_18
REMARK    6  A    between atoms: C21_26  and  O3_27
REMARK    7  A    between atoms: O3_27  and  C22_28
REMARK    8  A    between atoms: C22_28  and  C23_29
REMARK    9  A    between atoms: N4_31  and  C25_32
REMARK   10  A    between atoms: C25_32  and  C26_33
REMARK   11  A    between atoms: N5_35  and  C27_36
REMARK                            x       y       z     vdW  Elec       q    Type
REMARK                         _______ _______ _______ _____ _____    ______ ____
ROOT
ATOM      1  C2  UNL     1      24.919  -7.815 -40.117  0.00  0.00    +0.000 A 
ATOM      2  C3  UNL     1      23.918  -7.490 -41.055  0.00  0.00    +0.000 A 
ATOM      3  C4  UNL     1      23.709  -8.288 -42.199  0.00  0.00    +0.000 A 
ATOM      4  C19 UNL     1      24.394  -9.515 -42.278  0.00  0.00    +0.000 A 
ATOM      5  C20 UNL     1      25.386  -9.845 -41.356  0.00  0.00    +0.000 A 
ATOM      6  C21 UNL     1      25.683  -8.978 -40.293  0.00  0.00    +0.000 A 
ENDROOT
BRANCH   3   7
ATOM      7  C5  UNL     1      22.656  -7.954 -43.258  0.00  0.00    +0.000 C 
ATOM      8  N1  UNL     1      21.503  -7.182 -42.767  0.00  0.00    +0.000 N 
ATOM      9  C6  UNL     1      20.526  -6.738 -43.723  0.00  0.00    +0.000 A 
ATOM     10  C7  UNL     1      19.236  -6.374 -43.310  0.00  0.00    +0.000 A 
ATOM     11  C8  UNL     1      18.293  -5.949 -44.250  0.00  0.00    +0.000 A 
ATOM     12  C9  UNL     1      18.633  -5.883 -45.606  0.00  0.00    +0.000 A 
ATOM     13  C10 UNL     1      19.920  -6.235 -46.027  0.00  0.00    +0.000 A 
ATOM     14  C11 UNL     1      20.876  -6.657 -45.089  0.00  0.00    +0.000 A 
ATOM     15  C12 UNL     1      22.283  -6.925 -45.464  0.00  0.00    +0.000 C 
ATOM     16  O2  UNL     1      22.683  -6.786 -46.651  0.00  0.00    +0.000 OA
ATOM     17  N2  UNL     1      23.216  -7.232 -44.418  0.00  0.00    +0.000 N 
ATOM     18  H6  UNL     1      21.405  -6.857 -41.780  0.00  0.00    +0.000 HD
BRANCH  17  19
ATOM     19  N3  UNL     1      24.330  -6.384 -44.271  0.00  0.00    +0.000 N 
ATOM     20  H11 UNL     1      24.357  -5.734 -43.455  0.00  0.00    +0.000 HD
BRANCH  19  21
ATOM     21  C13 UNL     1      25.592  -6.756 -44.830  0.00  0.00    +0.000 A 
ATOM     22  C14 UNL     1      26.643  -7.149 -43.985  0.00  0.00    +0.000 A 
ATOM     23  C15 UNL     1      27.892  -7.473 -44.522  0.00  0.00    +0.000 A 
ATOM     24  C16 UNL     1      28.097  -7.416 -45.910  0.00  0.00    +0.000 A 
ATOM     25  C17 UNL     1      27.047  -7.033 -46.760  0.00  0.00    +0.000 A 
ATOM     26  C18 UNL     1      25.796  -6.698 -46.221  0.00  0.00    +0.000 A 
ENDBRANCH  19  21
ENDBRANCH  17  19
ENDBRANCH   3   7
BRANCH   1  28
ATOM     27  C1  UNL     1      24.292  -6.807 -37.911  0.00  0.00    +0.000 C 
ATOM     28  O1  UNL     1      25.185  -7.006 -39.000  0.00  0.00    +0.000 OA
ENDBRANCH   1  28
BRANCH   6  29
ATOM     29  O3  UNL     1      26.721  -9.238 -39.382  0.00  0.00    +0.000 OA
BRANCH  29  30
ATOM     30  C22 UNL     1      27.717 -10.250 -39.535  0.00  0.00    +0.000 C 
BRANCH  30  31
ATOM     31  C23 UNL     1      28.972  -9.674 -40.115  0.00  0.00    +0.000 A 
ATOM     32  C24 UNL     1      30.209  -9.626 -39.513  0.00  0.00    +0.000 A 
ATOM     33  N4  UNL     1      31.033  -9.050 -40.405  0.00  0.00    +0.000 N 
ATOM     34  N6  UNL     1      30.339  -8.775 -41.500  0.00  0.00    +0.000 NA
ATOM     35  N7  UNL     1      29.074  -9.139 -41.348  0.00  0.00    +0.000 NA
BRANCH  33  36
ATOM     36  C25 UNL     1      32.476  -8.877 -40.277  0.00  0.00    +0.000 C 
BRANCH  36  37
ATOM     37  C26 UNL     1      33.183  -9.696 -41.316  0.00  0.00    +0.000 C 
ATOM     38  O4  UNL     1      34.366  -9.398 -41.640  0.00  0.00    +0.000 OA
ATOM     39  N5  UNL     1      32.534 -10.842 -41.883  0.00  0.00    +0.000 N 
ATOM     40  H24 UNL     1      31.740 -11.261 -41.349  0.00  0.00    +0.000 HD
BRANCH  39  41
ATOM     41  C27 UNL     1      32.937 -11.476 -43.111  0.00  0.00    +0.000 A 
ATOM     42  C28 UNL     1      32.724 -10.863 -44.363  0.00  0.00    +0.000 A 
ATOM     43  C29 UNL     1      33.110 -11.511 -45.541  0.00  0.00    +0.000 A 
ATOM     44  C30 UNL     1      33.686 -12.784 -45.485  0.00  0.00    +0.000 A 
ATOM     45 BR1  UNL     1      34.209 -13.663 -47.095  0.00  0.00    +0.000 Br
ATOM     46  C31 UNL     1      33.863 -13.417 -44.250  0.00  0.00    +0.000 A 
ATOM     47  C32 UNL     1      33.490 -12.768 -43.069  0.00  0.00    +0.000 A 
ENDBRANCH  39  41
ENDBRANCH  36  37
ENDBRANCH  33  36
ENDBRANCH  30  31
ENDBRANCH  29  30
ENDBRANCH   6  29
TORSDOF 10
ENDMDL
MODEL 2
REMARK VINA RESULT:    -6.964      5.403     11.118
REMARK INTER + INTRA:         -13.314
REMARK INTER:                 -10.812
REMARK INTRA:                  -2.503
REMARK UNBOUND:                -2.280
REMARK  Name = resultss/4CJN/ligands/lig_338_t0.pdb
REMARK  11 active torsions:
REMARK  status: ('A' for Active; 'I' for Inactive)
REMARK    1  A    between atoms: C1_1  and  O1_2
REMARK    2  A    between atoms: O1_2  and  C2_3
REMARK    3  A    between atoms: C4_5  and  C5_6
REMARK    4  A    between atoms: N2_16  and  N3_17
REMARK    5  A    between atoms: N3_17  and  C13_18
REMARK    6  A    between atoms: C21_26  and  O3_27
REMARK    7  A    between atoms: O3_27  and  C22_28
REMARK    8  A    between atoms: C22_28  and  C23_29
REMARK    9  A    between atoms: N4_31  and  C25_32
REMARK   10  A    between atoms: C25_32  and  C26_33
REMARK   11  A    between atoms: N5_35  and  C27_36
REMARK                            x       y       z     vdW  Elec       q    Type
REMARK                         _______ _______ _______ _____ _____    ______ ____
ROOT
ATOM      1  C2  UNL     1      27.264  -9.478 -35.174  0.00  0.00    +0.000 A 
ATOM      2  C3  UNL     1      28.442  -9.744 -34.448  0.00  0.00    +0.000 A 
ATOM      3  C4  UNL     1      28.796  -8.961 -33.329  0.00  0.00    +0.000 A 
ATOM      4  C19 UNL     1      27.850  -8.038 -32.847  0.00  0.00    +0.000 A 
ATOM      5  C20 UNL     1      26.683  -7.767 -33.559  0.00  0.00    +0.000 A 
ATOM      6  C21 UNL     1      26.402  -8.456 -34.749  0.00  0.00    +0.000 A 
ENDROOT
BRANCH   3   7
ATOM      7  C5  UNL     1      30.081  -9.195 -32.531  0.00  0.00    +0.000 C 
ATOM      8  N1  UNL     1      30.651 -10.546 -32.652  0.00  0.00    +0.000 N 
ATOM      9  C6  UNL     1      31.914 -10.810 -32.020  0.00  0.00    +0.000 A 
ATOM     10  C7  UNL     1      32.313 -12.126 -31.741  0.00  0.00    +0.000 A 
ATOM     11  C8  UNL     1      33.542 -12.369 -31.120  0.00  0.00    +0.000 A 
ATOM     12  C9  UNL     1      34.379 -11.301 -30.776  0.00  0.00    +0.000 A 
ATOM     13  C10 UNL     1      33.994  -9.986 -31.059  0.00  0.00    +0.000 A 
ATOM     14  C11 UNL     1      32.765  -9.733 -31.689  0.00  0.00    +0.000 A 
ATOM     15  C12 UNL     1      32.365  -8.373 -32.117  0.00  0.00    +0.000 C 
ATOM     16  O2  UNL     1      33.117  -7.379 -31.931  0.00  0.00    +0.000 OA
ATOM     17  N2  UNL     1      31.146  -8.229 -32.862  0.00  0.00    +0.000 N 
ATOM     18  H6  UNL     1      30.239 -11.295 -33.252  0.00  0.00    +0.000 HD
BRANCH  17  19
ATOM     19  N3  UNL     1      31.235  -7.663 -34.148  0.00  0.00    +0.000 N 
ATOM     20  H11 UNL     1      31.339  -6.627 -34.231  0.00  0.00    +0.000 HD
BRANCH  19  21
ATOM     21  C13 UNL     1      31.729  -8.441 -35.240  0.00  0.00    +0.000 A 
ATOM     22  C14 UNL     1      33.048  -8.925 -35.214  0.00  0.00    +0.000 A 
ATOM     23  C15 UNL     1      33.550  -9.650 -36.298  0.00  0.00    +0.000 A 
ATOM     24  C16 UNL     1      32.735  -9.906 -37.412  0.00  0.00    +0.000 A 
ATOM     25  C17 UNL     1      31.413  -9.433 -37.438  0.00  0.00    +0.000 A 
ATOM     26  C18 UNL     1      30.911  -8.697 -36.356  0.00  0.00    +0.000 A 
ENDBRANCH  19  21
ENDBRANCH  17  19
ENDBRANCH   3   7
BRANCH   1  28
ATOM     27  C1  UNL     1      27.599 -10.123 -37.571  0.00  0.00    +0.000 C 
ATOM     28  O1  UNL     1      26.918 -10.205 -36.326  0.00  0.00    +0.000 OA
ENDBRANCH   1  28
BRANCH   6  29
ATOM     29  O3  UNL     1      25.273  -8.166 -35.534  0.00  0.00    +0.000 OA
BRANCH  29  30
ATOM     30  C22 UNL     1      25.049  -6.941 -36.235  0.00  0.00    +0.000 C 
BRANCH  30  31
ATOM     31  C23 UNL     1      25.041  -7.172 -37.715  0.00  0.00    +0.000 A 
ATOM     32  C24 UNL     1      24.616  -8.307 -38.366  0.00  0.00    +0.000 A 
ATOM     33  N4  UNL     1      24.766  -8.058 -39.679  0.00  0.00    +0.000 N 
ATOM     34  N6  UNL     1      25.244  -6.831 -39.821  0.00  0.00    +0.000 NA
ATOM     35  N7  UNL     1      25.429  -6.268 -38.637  0.00  0.00    +0.000 NA
BRANCH  33  36
ATOM     36  C25 UNL     1      24.349  -8.915 -40.784  0.00  0.00    +0.000 C 
BRANCH  36  37
ATOM     37  C26 UNL     1      25.531  -9.250 -41.645  0.00  0.00    +0.000 C 
ATOM     38  O4  UNL     1      25.345  -9.817 -42.758  0.00  0.00    +0.000 OA
ATOM     39  N5  UNL     1      26.848  -8.869 -41.227  0.00  0.00    +0.000 N 
ATOM     40  H24 UNL     1      26.928  -8.108 -40.516  0.00  0.00    +0.000 HD
BRANCH  39  41
ATOM     41  C27 UNL     1      28.061  -9.434 -41.757  0.00  0.00    +0.000 A 
ATOM     42  C28 UNL     1      28.635  -8.960 -42.955  0.00  0.00    +0.000 A 
ATOM     43  C29 UNL     1      29.806  -9.540 -43.455  0.00  0.00    +0.000 A 
ATOM     44  C30 UNL     1      30.399 -10.612 -42.783  0.00  0.00    +0.000 A 
ATOM     45 BR1  UNL     1      31.995 -11.400 -43.471  0.00  0.00    +0.000 Br
ATOM     46  C31 UNL     1      29.814 -11.115 -41.616  0.00  0.00    +0.000 A 
ATOM     47  C32 UNL     1      28.651 -10.531 -41.106  0.00  0.00    +0.000 A 
ENDBRANCH  39  41
ENDBRANCH  36  37
ENDBRANCH  33  36
ENDBRANCH  30  31
ENDBRANCH  29  30
ENDBRANCH   6  29
TORSDOF 10
ENDMDL
MODEL 3
REMARK VINA RESULT:    -6.915      6.415     11.033
REMARK INTER + INTRA:         -13.237
REMARK INTER:                 -10.239
REMARK INTRA:                  -2.998
REMARK UNBOUND:                -2.280
REMARK  Name = resultss/4CJN/ligands/lig_338_t0.pdb
REMARK  11 active torsions:
REMARK  status: ('A' for Active; 'I' for Inactive)
REMARK    1  A    between atoms: C1_1  and  O1_2
REMARK    2  A    between atoms: O1_2  and  C2_3
REMARK    3  A    between atoms: C4_5  and  C5_6
REMARK    4  A    between atoms: N2_16  and  N3_17
REMARK    5  A    between atoms: N3_17  and  C13_18
REMARK    6  A    between atoms: C21_26  and  O3_27
REMARK    7  A    between atoms: O3_27  and  C22_28
REMARK    8  A    between atoms: C22_28  and  C23_29
REMARK    9  A    between atoms: N4_31  and  C25_32
REMARK   10  A    between atoms: C25_32  and  C26_33
REMARK   11  A    between atoms: N5_35  and  C27_36
REMARK                            x       y       z     vdW  Elec       q    Type
REMARK                         _______ _______ _______ _____ _____    ______ ____
ROOT
ATOM      1  C2  UNL     1      31.959  -7.436 -36.628  0.00  0.00    +0.000 A 
ATOM      2  C3  UNL     1      31.778  -7.704 -38.000  0.00  0.00    +0.000 A 
ATOM      3  C4  UNL     1      32.274  -8.892 -38.578  0.00  0.00    +0.000 A 
ATOM      4  C19 UNL     1      32.781  -9.881 -37.715  0.00  0.00    +0.000 A 
ATOM      5  C20 UNL     1      32.965  -9.624 -36.358  0.00  0.00    +0.000 A 
ATOM      6  C21 UNL     1      32.593  -8.385 -35.813  0.00  0.00    +0.000 A 
ENDROOT
BRANCH   3   7
ATOM      7  C5  UNL     1      32.127  -9.209 -40.068  0.00  0.00    +0.000 C 
ATOM      8  N1  UNL     1      33.119 -10.155 -40.604  0.00  0.00    +0.000 N 
ATOM      9  C6  UNL     1      32.981 -10.584 -41.968  0.00  0.00    +0.000 A 
ATOM     10  C7  UNL     1      34.072 -11.135 -42.658  0.00  0.00    +0.000 A 
ATOM     11  C8  UNL     1      33.927 -11.543 -43.987  0.00  0.00    +0.000 A 
ATOM     12  C9  UNL     1      32.693 -11.405 -44.633  0.00  0.00    +0.000 A 
ATOM     13  C10 UNL     1      31.597 -10.867 -43.951  0.00  0.00    +0.000 A 
ATOM     14  C11 UNL     1      31.732 -10.461 -42.614  0.00  0.00    +0.000 A 
ATOM     15  C12 UNL     1      30.577  -9.997 -41.811  0.00  0.00    +0.000 C 
ATOM     16  O2  UNL     1      29.417  -9.946 -42.301  0.00  0.00    +0.000 OA
ATOM     17  N2  UNL     1      30.787  -9.718 -40.419  0.00  0.00    +0.000 N 
ATOM     18  H6  UNL     1      33.859 -10.607 -40.021  0.00  0.00    +0.000 HD
BRANCH  17  19
ATOM     19  N3  UNL     1      30.027 -10.452 -39.488  0.00  0.00    +0.000 N 
ATOM     20  H11 UNL     1      30.411 -11.355 -39.133  0.00  0.00    +0.000 HD
BRANCH  19  21
ATOM     21  C13 UNL     1      29.092  -9.781 -38.641  0.00  0.00    +0.000 A 
ATOM     22  C14 UNL     1      28.299  -8.742 -39.158  0.00  0.00    +0.000 A 
ATOM     23  C15 UNL     1      27.414  -8.055 -38.324  0.00  0.00    +0.000 A 
ATOM     24  C16 UNL     1      27.306  -8.406 -36.969  0.00  0.00    +0.000 A 
ATOM     25  C17 UNL     1      28.088  -9.450 -36.450  0.00  0.00    +0.000 A 
ATOM     26  C18 UNL     1      28.984 -10.134 -37.283  0.00  0.00    +0.000 A 
ENDBRANCH  19  21
ENDBRANCH  17  19
ENDBRANCH   3   7
BRANCH   1  28
ATOM     27  C1  UNL     1      30.197  -5.981 -35.603  0.00  0.00    +0.000 C 
ATOM     28  O1  UNL     1      31.526  -6.236 -36.040  0.00  0.00    +0.000 OA
ENDBRANCH   1  28
BRANCH   6  29
ATOM     29  O3  UNL     1      32.824  -8.059 -34.466  0.00  0.00    +0.000 OA
BRANCH  29  30
ATOM     30  C22 UNL     1      32.591  -8.927 -33.356  0.00  0.00    +0.000 C 
BRANCH  30  31
ATOM     31  C23 UNL     1      31.132  -8.980 -33.023  0.00  0.00    +0.000 A 
ATOM     32  C24 UNL     1      30.413  -8.034 -32.327  0.00  0.00    +0.000 A 
ATOM     33  N4  UNL     1      29.147  -8.485 -32.290  0.00  0.00    +0.000 N 
ATOM     34  N6  UNL     1      29.093  -9.638 -32.942  0.00  0.00    +0.000 NA
ATOM     35  N7  UNL     1      30.293  -9.969 -33.394  0.00  0.00    +0.000 NA
BRANCH  33  36
ATOM     36  C25 UNL     1      27.984  -7.782 -31.759  0.00  0.00    +0.000 C 
BRANCH  36  37
ATOM     37  C26 UNL     1      27.012  -7.494 -32.865  0.00  0.00    +0.000 C 
ATOM     38  O4  UNL     1      27.368  -6.756 -33.825  0.00  0.00    +0.000 OA
ATOM     39  N5  UNL     1      25.717  -8.108 -32.853  0.00  0.00    +0.000 N 
ATOM     40  H24 UNL     1      25.594  -8.965 -32.269  0.00  0.00    +0.000 HD
BRANCH  39  41
ATOM     41  C27 UNL     1      24.594  -7.647 -33.627  0.00  0.00    +0.000 A 
ATOM     42  C28 UNL     1      23.711  -6.665 -33.133  0.00  0.00    +0.000 A 
ATOM     43  C29 UNL     1      22.618  -6.248 -33.901  0.00  0.00    +0.000 A 
ATOM     44  C30 UNL     1      22.381  -6.823 -35.153  0.00  0.00    +0.000 A 
ATOM     45 BR1  UNL     1      20.888  -6.252 -36.195  0.00  0.00    +0.000 Br
ATOM     46  C31 UNL     1      23.229  -7.827 -35.633  0.00  0.00    +0.000 A 
ATOM     47  C32 UNL     1      24.329  -8.238 -34.874  0.00  0.00    +0.000 A 
ENDBRANCH  39  41
ENDBRANCH  36  37
ENDBRANCH  33  36
ENDBRANCH  30  31
ENDBRANCH  29  30
ENDBRANCH   6  29
TORSDOF 10
ENDMDL
MODEL 4
REMARK VINA RESULT:    -6.462      1.958      2.486
REMARK INTER + INTRA:         -12.520
REMARK INTER:                 -10.148
REMARK INTRA:                  -2.372
REMARK UNBOUND:                -2.280
REMARK  Name = resultss/4CJN/ligands/lig_338_t0.pdb
REMARK  11 active torsions:
REMARK  status: ('A' for Active; 'I' for Inactive)
REMARK    1  A    between atoms: C1_1  and  O1_2
REMARK    2  A    between atoms: O1_2  and  C2_3
REMARK    3  A    between atoms: C4_5  and  C5_6
REMARK    4  A    between atoms: N2_16  and  N3_17
REMARK    5  A    between atoms: N3_17  and  C13_18
REMARK    6  A    between atoms: C21_26  and  O3_27
REMARK    7  A    between atoms: O3_27  and  C22_28
REMARK    8  A    between atoms: C22_28  and  C23_29
REMARK    9  A    between atoms: N4_31  and  C25_32
REMARK   10  A    between atoms: C25_32  and  C26_33
REMARK   11  A    between atoms: N5_35  and  C27_36
REMARK                            x       y       z     vdW  Elec       q    Type
REMARK                         _______ _______ _______ _____ _____    ______ ____
ROOT
ATOM      1  C2  UNL     1      26.290  -7.809 -37.938  0.00  0.00    +0.000 A 
ATOM      2  C3  UNL     1      25.268  -7.584 -38.883  0.00  0.00    +0.000 A 
ATOM      3  C4  UNL     1      25.153  -8.395 -40.031  0.00  0.00    +0.000 A 
ATOM      4  C19 UNL     1      25.961  -9.544 -40.109  0.00  0.00    +0.000 A 
ATOM      5  C20 UNL     1      26.975  -9.773 -39.181  0.00  0.00    +0.000 A 
ATOM      6  C21 UNL     1      27.172  -8.885 -38.112  0.00  0.00    +0.000 A 
ENDROOT
BRANCH   3   7
ATOM      7  C5  UNL     1      24.079  -8.167 -41.098  0.00  0.00    +0.000 C 
ATOM      8  N1  UNL     1      23.039  -7.191 -40.735  0.00  0.00    +0.000 N 
ATOM      9  C6  UNL     1      22.057  -6.844 -41.726  0.00  0.00    +0.000 A 
ATOM     10  C7  UNL     1      20.836  -6.265 -41.350  0.00  0.00    +0.000 A 
ATOM     11  C8  UNL     1      19.887  -5.937 -42.323  0.00  0.00    +0.000 A 
ATOM     12  C9  UNL     1      20.153  -6.183 -43.675  0.00  0.00    +0.000 A 
ATOM     13  C10 UNL     1      21.373  -6.750 -44.060  0.00  0.00    +0.000 A 
ATOM     14  C11 UNL     1      22.334  -7.077 -43.091  0.00  0.00    +0.000 A 
ATOM     15  C12 UNL     1      23.684  -7.567 -43.453  0.00  0.00    +0.000 C 
ATOM     16  O2  UNL     1      24.026  -7.715 -44.657  0.00  0.00    +0.000 OA
ATOM     17  N2  UNL     1      24.640  -7.759 -42.401  0.00  0.00    +0.000 N 
ATOM     18  H6  UNL     1      23.031  -6.665 -39.833  0.00  0.00    +0.000 HD
BRANCH  17  19
ATOM     19  N3  UNL     1      25.840  -7.026 -42.472  0.00  0.00    +0.000 N 
ATOM     20  H11 UNL     1      25.852  -6.052 -42.093  0.00  0.00    +0.000 HD
BRANCH  19  21
ATOM     21  C13 UNL     1      27.095  -7.708 -42.515  0.00  0.00    +0.000 A 
ATOM     22  C14 UNL     1      28.197  -7.190 -41.813  0.00  0.00    +0.000 A 
ATOM     23  C15 UNL     1      29.437  -7.830 -41.885  0.00  0.00    +0.000 A 
ATOM     24  C16 UNL     1      29.583  -8.997 -42.651  0.00  0.00    +0.000 A 
ATOM     25  C17 UNL     1      28.483  -9.524 -43.346  0.00  0.00    +0.000 A 
ATOM     26  C18 UNL     1      27.241  -8.878 -43.283  0.00  0.00    +0.000 A 
ENDBRANCH  19  21
ENDBRANCH  17  19
ENDBRANCH   3   7
BRANCH   1  28
ATOM     27  C1  UNL     1      25.413  -6.555 -35.954  0.00  0.00    +0.000 C 
ATOM     28  O1  UNL     1      26.462  -6.981 -36.816  0.00  0.00    +0.000 OA
ENDBRANCH   1  28
BRANCH   6  29
ATOM     29  O3  UNL     1      28.224  -9.039 -37.193  0.00  0.00    +0.000 OA
BRANCH  29  30
ATOM     30  C22 UNL     1      29.366  -9.878 -37.381  0.00  0.00    +0.000 C 
BRANCH  30  31
ATOM     31  C23 UNL     1      30.453  -9.138 -38.097  0.00  0.00    +0.000 A 
ATOM     32  C24 UNL     1      31.616  -9.674 -38.603  0.00  0.00    +0.000 A 
ATOM     33  N4  UNL     1      32.274  -8.653 -39.178  0.00  0.00    +0.000 N 
ATOM     34  N6  UNL     1      31.545  -7.555 -39.045  0.00  0.00    +0.000 NA
ATOM     35  N7  UNL     1      30.429  -7.820 -38.381  0.00  0.00    +0.000 NA
BRANCH  33  36
ATOM     36  C25 UNL     1      33.509  -8.734 -39.951  0.00  0.00    +0.000 C 
BRANCH  36  37
ATOM     37  C26 UNL     1      33.509  -9.981 -40.785  0.00  0.00    +0.000 C 
ATOM     38  O4  UNL     1      34.352 -10.889 -40.541  0.00  0.00    +0.000 OA
ATOM     39  N5  UNL     1      32.517 -10.156 -41.805  0.00  0.00    +0.000 N 
ATOM     40  H24 UNL     1      31.647  -9.583 -41.736  0.00  0.00    +0.000 HD
BRANCH  39  41
ATOM     41  C27 UNL     1      32.623 -11.102 -42.885  0.00  0.00    +0.000 A 
ATOM     42  C28 UNL     1      33.509 -10.895 -43.963  0.00  0.00    +0.000 A 
ATOM     43  C29 UNL     1      33.579 -11.823 -45.007  0.00  0.00    +0.000 A 
ATOM     44  C30 UNL     1      32.749 -12.948 -45.002  0.00  0.00    +0.000 A 
ATOM     45 BR1  UNL     1      32.848 -14.209 -46.430  0.00  0.00    +0.000 Br
ATOM     46  C31 UNL     1      31.839 -13.140 -43.957  0.00  0.00    +0.000 A 
ATOM     47  C32 UNL     1      31.775 -12.222 -42.905  0.00  0.00    +0.000 A 
ENDBRANCH  39  41
ENDBRANCH  36  37
ENDBRANCH  33  36
ENDBRANCH  30  31
ENDBRANCH  29  30
ENDBRANCH   6  29
TORSDOF 10
ENDMDL
MODEL 5
REMARK VINA RESULT:    -6.170      2.973      6.708
REMARK INTER + INTRA:         -12.057
REMARK INTER:                 -10.133
REMARK INTRA:                  -1.924
REMARK UNBOUND:                -2.280
REMARK  Name = resultss/4CJN/ligands/lig_338_t0.pdb
REMARK  11 active torsions:
REMARK  status: ('A' for Active; 'I' for Inactive)
REMARK    1  A    between atoms: C1_1  and  O1_2
REMARK    2  A    between atoms: O1_2  and  C2_3
REMARK    3  A    between atoms: C4_5  and  C5_6
REMARK    4  A    between atoms: N2_16  and  N3_17
REMARK    5  A    between atoms: N3_17  and  C13_18
REMARK    6  A    between atoms: C21_26  and  O3_27
REMARK    7  A    between atoms: O3_27  and  C22_28
REMARK    8  A    between atoms: C22_28  and  C23_29
REMARK    9  A    between atoms: N4_31  and  C25_32
REMARK   10  A    between atoms: C25_32  and  C26_33
REMARK   11  A    between atoms: N5_35  and  C27_36
REMARK                            x       y       z     vdW  Elec       q    Type
REMARK                         _______ _______ _______ _____ _____    ______ ____
ROOT
ATOM      1  C2  UNL     1      25.042  -7.642 -41.283  0.00  0.00    +0.000 A 
ATOM      2  C3  UNL     1      24.788  -7.711 -39.898  0.00  0.00    +0.000 A 
ATOM      3  C4  UNL     1      25.623  -7.048 -38.975  0.00  0.00    +0.000 A 
ATOM      4  C19 UNL     1      26.594  -6.165 -39.481  0.00  0.00    +0.000 A 
ATOM      5  C20 UNL     1      26.853  -6.091 -40.849  0.00  0.00    +0.000 A 
ATOM      6  C21 UNL     1      26.106  -6.859 -41.756  0.00  0.00    +0.000 A 
ENDROOT
BRANCH   3   7
ATOM      7  C5  UNL     1      25.402  -7.123 -37.461  0.00  0.00    +0.000 C 
ATOM      8  N1  UNL     1      24.137  -7.750 -37.047  0.00  0.00    +0.000 N 
ATOM      9  C6  UNL     1      23.907  -7.953 -35.644  0.00  0.00    +0.000 A 
ATOM     10  C7  UNL     1      22.608  -8.152 -35.153  0.00  0.00    +0.000 A 
ATOM     11  C8  UNL     1      22.397  -8.344 -33.785  0.00  0.00    +0.000 A 
ATOM     12  C9  UNL     1      23.481  -8.340 -32.899  0.00  0.00    +0.000 A 
ATOM     13  C10 UNL     1      24.782  -8.153 -33.380  0.00  0.00    +0.000 A 
ATOM     14  C11 UNL     1      25.004  -7.966 -34.754  0.00  0.00    +0.000 A 
ATOM     15  C12 UNL     1      26.366  -7.883 -35.328  0.00  0.00    +0.000 C 
ATOM     16  O2  UNL     1      27.391  -7.975 -34.599  0.00  0.00    +0.000 OA
ATOM     17  N2  UNL     1      26.497  -7.815 -36.755  0.00  0.00    +0.000 N 
ATOM     18  H6  UNL     1      23.441  -8.143 -37.719  0.00  0.00    +0.000 HD
BRANCH  17  19
ATOM     19  N3  UNL     1      27.236  -8.833 -37.388  0.00  0.00    +0.000 N 
ATOM     20  H11 UNL     1      26.788  -9.360 -38.171  0.00  0.00    +0.000 HD
BRANCH  19  21
ATOM     21  C13 UNL     1      28.664  -8.789 -37.386  0.00  0.00    +0.000 A 
ATOM     22  C14 UNL     1      29.392  -9.723 -36.631  0.00  0.00    +0.000 A 
ATOM     23  C15 UNL     1      30.787  -9.658 -36.591  0.00  0.00    +0.000 A 
ATOM     24  C16 UNL     1      31.466  -8.665 -37.314  0.00  0.00    +0.000 A 
ATOM     25  C17 UNL     1      30.744  -7.735 -38.079  0.00  0.00    +0.000 A 
ATOM     26  C18 UNL     1      29.344  -7.793 -38.112  0.00  0.00    +0.000 A 
ENDBRANCH  19  21
ENDBRANCH  17  19
ENDBRANCH   3   7
BRANCH   1  28
ATOM     27  C1  UNL     1      22.847  -8.239 -42.332  0.00  0.00    +0.000 C 
ATOM     28  O1  UNL     1      24.261  -8.340 -42.220  0.00  0.00    +0.000 OA
ENDBRANCH   1  28
BRANCH   6  29
ATOM     29  O3  UNL     1      26.379  -6.868 -43.134  0.00  0.00    +0.000 OA
BRANCH  29  30
ATOM     30  C22 UNL     1      26.847  -7.997 -43.874  0.00  0.00    +0.000 C 
BRANCH  30  31
ATOM     31  C23 UNL     1      27.843  -8.778 -43.074  0.00  0.00    +0.000 A 
ATOM     32  C24 UNL     1      29.157  -8.440 -42.843  0.00  0.00    +0.000 A 
ATOM     33  N4  UNL     1      29.657  -9.413 -42.061  0.00  0.00    +0.000 N 
ATOM     34  N6  UNL     1      28.695 -10.290 -41.816  0.00  0.00    +0.000 NA
ATOM     35  N7  UNL     1      27.577  -9.931 -42.429  0.00  0.00    +0.000 NA
BRANCH  33  36
ATOM     36  C25 UNL     1      30.982  -9.449 -41.453  0.00  0.00    +0.000 C 
BRANCH  36  37
ATOM     37  C26 UNL     1      31.862 -10.406 -42.202  0.00  0.00    +0.000 C 
ATOM     38  O4  UNL     1      33.097 -10.445 -41.942  0.00  0.00    +0.000 OA
ATOM     39  N5  UNL     1      31.285 -11.306 -43.157  0.00  0.00    +0.000 N 
ATOM     40  H24 UNL     1      30.261 -11.499 -43.082  0.00  0.00    +0.000 HD
BRANCH  39  41
ATOM     41  C27 UNL     1      32.033 -11.994 -44.177  0.00  0.00    +0.000 A 
ATOM     42  C28 UNL     1      32.963 -11.318 -44.993  0.00  0.00    +0.000 A 
ATOM     43  C29 UNL     1      33.663 -12.009 -45.988  0.00  0.00    +0.000 A 
ATOM     44  C30 UNL     1      33.423 -13.370 -46.196  0.00  0.00    +0.000 A 
ATOM     45 BR1  UNL     1      34.380 -14.307 -47.556  0.00  0.00    +0.000 Br
ATOM     46  C31 UNL     1      32.472 -14.040 -45.418  0.00  0.00    +0.000 A 
ATOM     47  C32 UNL     1      31.780 -13.356 -44.414  0.00  0.00    +0.000 A 
ENDBRANCH  39  41
ENDBRANCH  36  37
ENDBRANCH  33  36
ENDBRANCH  30  31
ENDBRANCH  29  30
ENDBRANCH   6  29
TORSDOF 10
ENDMDL
MODEL 6
REMARK VINA RESULT:    -5.925      4.973      8.485
REMARK INTER + INTRA:         -11.669
REMARK INTER:                  -9.062
REMARK INTRA:                  -2.607
REMARK UNBOUND:                -2.280
REMARK  Name = resultss/4CJN/ligands/lig_338_t0.pdb
REMARK  11 active torsions:
REMARK  status: ('A' for Active; 'I' for Inactive)
REMARK    1  A    between atoms: C1_1  and  O1_2
REMARK    2  A    between atoms: O1_2  and  C2_3
REMARK    3  A    between atoms: C4_5  and  C5_6
REMARK    4  A    between atoms: N2_16  and  N3_17
REMARK    5  A    between atoms: N3_17  and  C13_18
REMARK    6  A    between atoms: C21_26  and  O3_27
REMARK    7  A    between atoms: O3_27  and  C22_28
REMARK    8  A    between atoms: C22_28  and  C23_29
REMARK    9  A    between atoms: N4_31  and  C25_32
REMARK   10  A    between atoms: C25_32  and  C26_33
REMARK   11  A    between atoms: N5_35  and  C27_36
REMARK                            x       y       z     vdW  Elec       q    Type
REMARK                         _______ _______ _______ _____ _____    ______ ____
ROOT
ATOM      1  C2  UNL     1      29.448  -6.561 -39.073  0.00  0.00    +0.000 A 
ATOM      2  C3  UNL     1      28.281  -6.753 -38.306  0.00  0.00    +0.000 A 
ATOM      3  C4  UNL     1      28.310  -6.632 -36.901  0.00  0.00    +0.000 A 
ATOM      4  C19 UNL     1      29.483  -6.131 -36.307  0.00  0.00    +0.000 A 
ATOM      5  C20 UNL     1      30.642  -5.940 -37.057  0.00  0.00    +0.000 A 
ATOM      6  C21 UNL     1      30.644  -6.192 -38.438  0.00  0.00    +0.000 A 
ENDROOT
BRANCH   3   7
ATOM      7  C5  UNL     1      27.074  -6.863 -36.027  0.00  0.00    +0.000 C 
ATOM      8  N1  UNL     1      25.804  -6.971 -36.763  0.00  0.00    +0.000 N 
ATOM      9  C6  UNL     1      24.615  -7.294 -36.022  0.00  0.00    +0.000 A 
ATOM     10  C7  UNL     1      23.346  -7.017 -36.551  0.00  0.00    +0.000 A 
ATOM     11  C8  UNL     1      22.198  -7.332 -35.819  0.00  0.00    +0.000 A 
ATOM     12  C9  UNL     1      22.310  -7.926 -34.557  0.00  0.00    +0.000 A 
ATOM     13  C10 UNL     1      23.572  -8.216 -34.026  0.00  0.00    +0.000 A 
ATOM     14  C11 UNL     1      24.730  -7.910 -34.757  0.00  0.00    +0.000 A 
ATOM     15  C12 UNL     1      26.081  -8.303 -34.295  0.00  0.00    +0.000 C 
ATOM     16  O2  UNL     1      26.247  -8.932 -33.215  0.00  0.00    +0.000 OA
ATOM     17  N2  UNL     1      27.194  -8.056 -35.166  0.00  0.00    +0.000 N 
ATOM     18  H6  UNL     1      25.733  -6.920 -37.804  0.00  0.00    +0.000 HD
BRANCH  17  19
ATOM     19  N3  UNL     1      27.961  -9.165 -35.570  0.00  0.00    +0.000 N 
ATOM     20  H11 UNL     1      27.801  -9.560 -36.524  0.00  0.00    +0.000 HD
BRANCH  19  21
ATOM     21  C13 UNL     1      29.249  -9.393 -34.994  0.00  0.00    +0.000 A 
ATOM     22  C14 UNL     1      29.376  -9.548 -33.603  0.00  0.00    +0.000 A 
ATOM     23  C15 UNL     1      30.638  -9.729 -33.031  0.00  0.00    +0.000 A 
ATOM     24  C16 UNL     1      31.781  -9.766 -33.844  0.00  0.00    +0.000 A 
ATOM     25  C17 UNL     1      31.659  -9.622 -35.236  0.00  0.00    +0.000 A 
ATOM     26  C18 UNL     1      30.394  -9.430 -35.811  0.00  0.00    +0.000 A 
ENDBRANCH  19  21
ENDBRANCH  17  19
ENDBRANCH   3   7
BRANCH   1  28
ATOM     27  C1  UNL     1      28.350  -6.487 -41.323  0.00  0.00    +0.000 C 
ATOM     28  O1  UNL     1      29.460  -6.731 -40.468  0.00  0.00    +0.000 OA
ENDBRANCH   1  28
BRANCH   6  29
ATOM     29  O3  UNL     1      31.806  -6.080 -39.219  0.00  0.00    +0.000 OA
BRANCH  29  30
ATOM     30  C22 UNL     1      33.035  -6.764 -38.971  0.00  0.00    +0.000 C 
BRANCH  30  31
ATOM     31  C23 UNL     1      33.219  -7.892 -39.938  0.00  0.00    +0.000 A 
ATOM     32  C24 UNL     1      32.286  -8.847 -40.272  0.00  0.00    +0.000 A 
ATOM     33  N4  UNL     1      32.875  -9.635 -41.188  0.00  0.00    +0.000 N 
ATOM     34  N6  UNL     1      34.097  -9.175 -41.414  0.00  0.00    +0.000 NA
ATOM     35  N7  UNL     1      34.337  -8.114 -40.658  0.00  0.00    +0.000 NA
BRANCH  33  36
ATOM     36  C25 UNL     1      32.254 -10.726 -41.932  0.00  0.00    +0.000 C 
BRANCH  36  37
ATOM     37  C26 UNL     1      30.837 -10.371 -42.272  0.00  0.00    +0.000 C 
ATOM     38  O4  UNL     1      30.603  -9.663 -43.290  0.00  0.00    +0.000 OA
ATOM     39  N5  UNL     1      29.762 -10.888 -41.476  0.00  0.00    +0.000 N 
ATOM     40  H24 UNL     1      29.956 -11.732 -40.892  0.00  0.00    +0.000 HD
BRANCH  39  41
ATOM     41  C27 UNL     1      28.428 -10.348 -41.467  0.00  0.00    +0.000 A 
ATOM     42  C28 UNL     1      27.784  -9.950 -42.657  0.00  0.00    +0.000 A 
ATOM     43  C29 UNL     1      26.493  -9.412 -42.615  0.00  0.00    +0.000 A 
ATOM     44  C30 UNL     1      25.845  -9.240 -41.389  0.00  0.00    +0.000 A 
ATOM     45 BR1  UNL     1      24.085  -8.504 -41.338  0.00  0.00    +0.000 Br
ATOM     46  C31 UNL     1      26.492  -9.594 -40.200  0.00  0.00    +0.000 A 
ATOM     47  C32 UNL     1      27.777 -10.143 -40.238  0.00  0.00    +0.000 A 
ENDBRANCH  39  41
ENDBRANCH  36  37
ENDBRANCH  33  36
ENDBRANCH  30  31
ENDBRANCH  29  30
ENDBRANCH   6  29
TORSDOF 10
ENDMDL
MODEL 7
REMARK VINA RESULT:    -5.784      4.679     10.110
REMARK INTER + INTRA:         -11.445
REMARK INTER:                  -8.791
REMARK INTRA:                  -2.653
REMARK UNBOUND:                -2.280
REMARK  Name = resultss/4CJN/ligands/lig_338_t0.pdb
REMARK  11 active torsions:
REMARK  status: ('A' for Active; 'I' for Inactive)
REMARK    1  A    between atoms: C1_1  and  O1_2
REMARK    2  A    between atoms: O1_2  and  C2_3
REMARK    3  A    between atoms: C4_5  and  C5_6
REMARK    4  A    between atoms: N2_16  and  N3_17
REMARK    5  A    between atoms: N3_17  and  C13_18
REMARK    6  A    between atoms: C21_26  and  O3_27
REMARK    7  A    between atoms: O3_27  and  C22_28
REMARK    8  A    between atoms: C22_28  and  C23_29
REMARK    9  A    between atoms: N4_31  and  C25_32
REMARK   10  A    between atoms: C25_32  and  C26_33
REMARK   11  A    between atoms: N5_35  and  C27_36
REMARK                            x       y       z     vdW  Elec       q    Type
REMARK                         _______ _______ _______ _____ _____    ______ ____
ROOT
ATOM      1  C2  UNL     1      26.210  -7.627 -33.900  0.00  0.00    +0.000 A 
ATOM      2  C3  UNL     1      27.490  -8.106 -33.554  0.00  0.00    +0.000 A 
ATOM      3  C4  UNL     1      28.648  -7.584 -34.167  0.00  0.00    +0.000 A 
ATOM      4  C19 UNL     1      28.505  -6.449 -34.986  0.00  0.00    +0.000 A 
ATOM      5  C20 UNL     1      27.243  -5.970 -35.335  0.00  0.00    +0.000 A 
ATOM      6  C21 UNL     1      26.086  -6.581 -34.827  0.00  0.00    +0.000 A 
ENDROOT
BRANCH   3   7
ATOM      7  C5  UNL     1      30.054  -8.096 -33.845  0.00  0.00    +0.000 C 
ATOM      8  N1  UNL     1      30.107  -9.197 -32.869  0.00  0.00    +0.000 N 
ATOM      9  C6  UNL     1      31.381  -9.802 -32.596  0.00  0.00    +0.000 A 
ATOM     10  C7  UNL     1      31.584 -10.544 -31.423  0.00  0.00    +0.000 A 
ATOM     11  C8  UNL     1      32.830 -11.123 -31.166  0.00  0.00    +0.000 A 
ATOM     12  C9  UNL     1      33.878 -10.968 -32.080  0.00  0.00    +0.000 A 
ATOM     13  C10 UNL     1      33.683 -10.239 -33.258  0.00  0.00    +0.000 A 
ATOM     14  C11 UNL     1      32.433  -9.659 -33.527  0.00  0.00    +0.000 A 
ATOM     15  C12 UNL     1      32.139  -8.981 -34.810  0.00  0.00    +0.000 C 
ATOM     16  O2  UNL     1      33.007  -8.895 -35.720  0.00  0.00    +0.000 OA
ATOM     17  N2  UNL     1      30.798  -8.526 -35.045  0.00  0.00    +0.000 N 
ATOM     18  H6  UNL     1      29.258  -9.626 -32.437  0.00  0.00    +0.000 HD
BRANCH  17  19
ATOM     19  N3  UNL     1      30.123  -9.045 -36.166  0.00  0.00    +0.000 N 
ATOM     20  H11 UNL     1      29.123  -9.325 -36.059  0.00  0.00    +0.000 HD
BRANCH  19  21
ATOM     21  C13 UNL     1      30.549  -8.695 -37.484  0.00  0.00    +0.000 A 
ATOM     22  C14 UNL     1      31.062  -9.684 -38.340  0.00  0.00    +0.000 A 
ATOM     23  C15 UNL     1      31.520  -9.340 -39.615  0.00  0.00    +0.000 A 
ATOM     24  C16 UNL     1      31.459  -8.006 -40.048  0.00  0.00    +0.000 A 
ATOM     25  C17 UNL     1      30.938  -7.015 -39.200  0.00  0.00    +0.000 A 
ATOM     26  C18 UNL     1      30.488  -7.357 -37.917  0.00  0.00    +0.000 A 
ENDBRANCH  19  21
ENDBRANCH  17  19
ENDBRANCH   3   7
BRANCH   1  28
ATOM     27  C1  UNL     1      24.655  -9.536 -33.437  0.00  0.00    +0.000 C 
ATOM     28  O1  UNL     1      25.037  -8.169 -33.347  0.00  0.00    +0.000 OA
ENDBRANCH   1  28
BRANCH   6  29
ATOM     29  O3  UNL     1      24.796  -6.175 -35.206  0.00  0.00    +0.000 OA
BRANCH  29  30
ATOM     30  C22 UNL     1      23.838  -6.996 -35.877  0.00  0.00    +0.000 C 
BRANCH  30  31
ATOM     31  C23 UNL     1      24.351  -7.419 -37.219  0.00  0.00    +0.000 A 
ATOM     32  C24 UNL     1      24.553  -6.608 -38.313  0.00  0.00    +0.000 A 
ATOM     33  N4  UNL     1      25.042  -7.406 -39.278  0.00  0.00    +0.000 N 
ATOM     34  N6  UNL     1      25.147  -8.635 -38.794  0.00  0.00    +0.000 NA
ATOM     35  N7  UNL     1      24.724  -8.674 -37.539  0.00  0.00    +0.000 NA
BRANCH  33  36
ATOM     36  C25 UNL     1      25.521  -6.994 -40.594  0.00  0.00    +0.000 C 
BRANCH  36  37
ATOM     37  C26 UNL     1      26.888  -7.560 -40.841  0.00  0.00    +0.000 C 
ATOM     38  O4  UNL     1      27.895  -6.805 -40.754  0.00  0.00    +0.000 OA
ATOM     39  N5  UNL     1      27.041  -8.960 -41.110  0.00  0.00    +0.000 N 
ATOM     40  H24 UNL     1      26.265  -9.596 -40.820  0.00  0.00    +0.000 HD
BRANCH  39  41
ATOM     41  C27 UNL     1      28.211  -9.546 -41.709  0.00  0.00    +0.000 A 
ATOM     42  C28 UNL     1      28.854  -8.948 -42.813  0.00  0.00    +0.000 A 
ATOM     43  C29 UNL     1      29.980  -9.550 -43.385  0.00  0.00    +0.000 A 
ATOM     44  C30 UNL     1      30.458 -10.764 -42.882  0.00  0.00    +0.000 A 
ATOM     45 BR1  UNL     1      31.993 -11.581 -43.668  0.00  0.00    +0.000 Br
ATOM     46  C31 UNL     1      29.802 -11.384 -41.814  0.00  0.00    +0.000 A 
ATOM     47  C32 UNL     1      28.684 -10.780 -41.231  0.00  0.00    +0.000 A 
ENDBRANCH  39  41
ENDBRANCH  36  37
ENDBRANCH  33  36
ENDBRANCH  30  31
ENDBRANCH  29  30
ENDBRANCH   6  29
TORSDOF 10
ENDMDL
MODEL 8
REMARK VINA RESULT:    -5.611      4.954     10.871
REMARK INTER + INTRA:         -11.170
REMARK INTER:                  -8.928
REMARK INTRA:                  -2.242
REMARK UNBOUND:                -2.280
REMARK  Name = resultss/4CJN/ligands/lig_338_t0.pdb
REMARK  11 active torsions:
REMARK  status: ('A' for Active; 'I' for Inactive)
REMARK    1  A    between atoms: C1_1  and  O1_2
REMARK    2  A    between atoms: O1_2  and  C2_3
REMARK    3  A    between atoms: C4_5  and  C5_6
REMARK    4  A    between atoms: N2_16  and  N3_17
REMARK    5  A    between atoms: N3_17  and  C13_18
REMARK    6  A    between atoms: C21_26  and  O3_27
REMARK    7  A    between atoms: O3_27  and  C22_28
REMARK    8  A    between atoms: C22_28  and  C23_29
REMARK    9  A    between atoms: N4_31  and  C25_32
REMARK   10  A    between atoms: C25_32  and  C26_33
REMARK   11  A    between atoms: N5_35  and  C27_36
REMARK                            x       y       z     vdW  Elec       q    Type
REMARK                         _______ _______ _______ _____ _____    ______ ____
ROOT
ATOM      1  C2  UNL     1      26.041  -8.605 -34.352  0.00  0.00    +0.000 A 
ATOM      2  C3  UNL     1      27.336  -9.007 -33.968  0.00  0.00    +0.000 A 
ATOM      3  C4  UNL     1      28.464  -8.228 -34.300  0.00  0.00    +0.000 A 
ATOM      4  C19 UNL     1      28.244  -6.953 -34.852  0.00  0.00    +0.000 A 
ATOM      5  C20 UNL     1      26.967  -6.547 -35.235  0.00  0.00    +0.000 A 
ATOM      6  C21 UNL     1      25.862  -7.388 -35.025  0.00  0.00    +0.000 A 
ENDROOT
BRANCH   3   7
ATOM      7  C5  UNL     1      29.891  -8.643 -33.932  0.00  0.00    +0.000 C 
ATOM      8  N1  UNL     1      29.990  -9.646 -32.860  0.00  0.00    +0.000 N 
ATOM      9  C6  UNL     1      31.290 -10.165 -32.532  0.00  0.00    +0.000 A 
ATOM     10  C7  UNL     1      31.521 -10.786 -31.296  0.00  0.00    +0.000 A 
ATOM     11  C8  UNL     1      32.791 -11.281 -30.987  0.00  0.00    +0.000 A 
ATOM     12  C9  UNL     1      33.836 -11.161 -31.910  0.00  0.00    +0.000 A 
ATOM     13  C10 UNL     1      33.612 -10.553 -33.150  0.00  0.00    +0.000 A 
ATOM     14  C11 UNL     1      32.338 -10.058 -33.472  0.00  0.00    +0.000 A 
ATOM     15  C12 UNL     1      32.019  -9.514 -34.812  0.00  0.00    +0.000 C 
ATOM     16  O2  UNL     1      32.887  -9.471 -35.725  0.00  0.00    +0.000 OA
ATOM     17  N2  UNL     1      30.660  -9.145 -35.087  0.00  0.00    +0.000 N 
ATOM     18  H6  UNL     1      29.160 -10.074 -32.391  0.00  0.00    +0.000 HD
BRANCH  17  19
ATOM     19  N3  UNL     1      30.015  -9.795 -36.156  0.00  0.00    +0.000 N 
ATOM     20  H11 UNL     1      29.176 -10.382 -35.950  0.00  0.00    +0.000 HD
BRANCH  19  21
ATOM     21  C13 UNL     1      30.108  -9.263 -37.479  0.00  0.00    +0.000 A 
ATOM     22  C14 UNL     1      30.981  -9.852 -38.411  0.00  0.00    +0.000 A 
ATOM     23  C15 UNL     1      31.108  -9.309 -39.692  0.00  0.00    +0.000 A 
ATOM     24  C16 UNL     1      30.357  -8.181 -40.056  0.00  0.00    +0.000 A 
ATOM     25  C17 UNL     1      29.477  -7.595 -39.133  0.00  0.00    +0.000 A 
ATOM     26  C18 UNL     1      29.355  -8.132 -37.843  0.00  0.00    +0.000 A 
ENDBRANCH  19  21
ENDBRANCH  17  19
ENDBRANCH   3   7
BRANCH   1  28
ATOM     27  C1  UNL     1      23.994  -9.161 -33.018  0.00  0.00    +0.000 C 
ATOM     28  O1  UNL     1      24.907  -9.391 -34.084  0.00  0.00    +0.000 OA
ENDBRANCH   1  28
BRANCH   6  29
ATOM     29  O3  UNL     1      24.569  -7.049 -35.458  0.00  0.00    +0.000 OA
BRANCH  29  30
ATOM     30  C22 UNL     1      23.870  -7.677 -36.534  0.00  0.00    +0.000 C 
BRANCH  30  31
ATOM     31  C23 UNL     1      24.699  -7.671 -37.780  0.00  0.00    +0.000 A 
ATOM     32  C24 UNL     1      25.117  -8.771 -38.495  0.00  0.00    +0.000 A 
ATOM     33  N4  UNL     1      25.808  -8.290 -39.543  0.00  0.00    +0.000 N 
ATOM     34  N6  UNL     1      25.801  -6.967 -39.479  0.00  0.00    +0.000 NA
ATOM     35  N7  UNL     1      25.136  -6.560 -38.408  0.00  0.00    +0.000 NA
BRANCH  33  36
ATOM     36  C25 UNL     1      26.360  -9.059 -40.653  0.00  0.00    +0.000 C 
BRANCH  36  37
ATOM     37  C26 UNL     1      25.434  -8.991 -41.832  0.00  0.00    +0.000 C 
ATOM     38  O4  UNL     1      25.078 -10.058 -42.403  0.00  0.00    +0.000 OA
ATOM     39  N5  UNL     1      24.916  -7.723 -42.258  0.00  0.00    +0.000 N 
ATOM     40  H24 UNL     1      24.932  -6.939 -41.569  0.00  0.00    +0.000 HD
BRANCH  39  41
ATOM     41  C27 UNL     1      24.335  -7.479 -43.552  0.00  0.00    +0.000 A 
ATOM     42  C28 UNL     1      22.943  -7.334 -43.722  0.00  0.00    +0.000 A 
ATOM     43  C29 UNL     1      22.406  -7.115 -44.995  0.00  0.00    +0.000 A 
ATOM     44  C30 UNL     1      23.247  -7.065 -46.111  0.00  0.00    +0.000 A 
ATOM     45 BR1  UNL     1      22.508  -6.767 -47.845  0.00  0.00    +0.000 Br
ATOM     46  C31 UNL     1      24.625  -7.249 -45.957  0.00  0.00    +0.000 A 
ATOM     47  C32 UNL     1      25.167  -7.456 -44.685  0.00  0.00    +0.000 A 
ENDBRANCH  39  41
ENDBRANCH  36  37
ENDBRANCH  33  36
ENDBRANCH  30  31
ENDBRANCH  29  30
ENDBRANCH   6  29
TORSDOF 10
ENDMDL
MODEL 9
REMARK VINA RESULT:    -5.424      2.728      4.063
REMARK INTER + INTRA:         -10.874
REMARK INTER:                  -9.735
REMARK INTRA:                  -1.139
REMARK UNBOUND:                -2.280
REMARK  Name = resultss/4CJN/ligands/lig_338_t0.pdb
REMARK  11 active torsions:
REMARK  status: ('A' for Active; 'I' for Inactive)
REMARK    1  A    between atoms: C1_1  and  O1_2
REMARK    2  A    between atoms: O1_2  and  C2_3
REMARK    3  A    between atoms: C4_5  and  C5_6
REMARK    4  A    between atoms: N2_16  and  N3_17
REMARK    5  A    between atoms: N3_17  and  C13_18
REMARK    6  A    between atoms: C21_26  and  O3_27
REMARK    7  A    between atoms: O3_27  and  C22_28
REMARK    8  A    between atoms: C22_28  and  C23_29
REMARK    9  A    between atoms: N4_31  and  C25_32
REMARK   10  A    between atoms: C25_32  and  C26_33
REMARK   11  A    between atoms: N5_35  and  C27_36
REMARK                            x       y       z     vdW  Elec       q    Type
REMARK                         _______ _______ _______ _____ _____    ______ ____
ROOT
ATOM      1  C2  UNL     1      26.740  -8.946 -36.095  0.00  0.00    +0.000 A 
ATOM      2  C3  UNL     1      25.787  -8.735 -37.112  0.00  0.00    +0.000 A 
ATOM      3  C4  UNL     1      25.982  -9.259 -38.407  0.00  0.00    +0.000 A 
ATOM      4  C19 UNL     1      27.052 -10.151 -38.601  0.00  0.00    +0.000 A 
ATOM      5  C20 UNL     1      28.000 -10.365 -37.602  0.00  0.00    +0.000 A 
ATOM      6  C21 UNL     1      27.872  -9.731 -36.356  0.00  0.00    +0.000 A 
ENDROOT
BRANCH   3   7
ATOM      7  C5  UNL     1      24.989  -9.028 -39.549  0.00  0.00    +0.000 C 
ATOM      8  N1  UNL     1      24.508  -7.643 -39.684  0.00  0.00    +0.000 N 
ATOM      9  C6  UNL     1      23.657  -7.325 -40.798  0.00  0.00    +0.000 A 
ATOM     10  C7  UNL     1      22.848  -6.180 -40.775  0.00  0.00    +0.000 A 
ATOM     11  C8  UNL     1      22.020  -5.885 -41.862  0.00  0.00    +0.000 A 
ATOM     12  C9  UNL     1      21.998  -6.729 -42.978  0.00  0.00    +0.000 A 
ATOM     13  C10 UNL     1      22.810  -7.868 -43.015  0.00  0.00    +0.000 A 
ATOM     14  C11 UNL     1      23.649  -8.169 -41.930  0.00  0.00    +0.000 A 
ATOM     15  C12 UNL     1      24.613  -9.292 -41.968  0.00  0.00    +0.000 C 
ATOM     16  O2  UNL     1      24.719 -10.031 -42.983  0.00  0.00    +0.000 OA
ATOM     17  N2  UNL     1      25.515  -9.449 -40.862  0.00  0.00    +0.000 N 
ATOM     18  H6  UNL     1      24.828  -6.859 -39.073  0.00  0.00    +0.000 HD
BRANCH  17  19
ATOM     19  N3  UNL     1      26.895  -9.400 -41.137  0.00  0.00    +0.000 N 
ATOM     20  H11 UNL     1      27.436 -10.293 -41.131  0.00  0.00    +0.000 HD
BRANCH  19  21
ATOM     21  C13 UNL     1      27.429  -8.337 -41.929  0.00  0.00    +0.000 A 
ATOM     22  C14 UNL     1      27.828  -8.584 -43.254  0.00  0.00    +0.000 A 
ATOM     23  C15 UNL     1      28.391  -7.559 -44.019  0.00  0.00    +0.000 A 
ATOM     24  C16 UNL     1      28.550  -6.277 -43.469  0.00  0.00    +0.000 A 
ATOM     25  C17 UNL     1      28.144  -6.022 -42.150  0.00  0.00    +0.000 A 
ATOM     26  C18 UNL     1      27.589  -7.052 -41.378  0.00  0.00    +0.000 A 
ENDBRANCH  19  21
ENDBRANCH  17  19
ENDBRANCH   3   7
BRANCH   1  28
ATOM     27  C1  UNL     1      25.740  -8.895 -33.799  0.00  0.00    +0.000 C 
ATOM     28  O1  UNL     1      26.598  -8.387 -34.813  0.00  0.00    +0.000 OA
ENDBRANCH   1  28
BRANCH   6  29
ATOM     29  O3  UNL     1      28.840  -9.863 -35.346  0.00  0.00    +0.000 OA
BRANCH  29  30
ATOM     30  C22 UNL     1      30.076  -9.148 -35.290  0.00  0.00    +0.000 C 
BRANCH  30  31
ATOM     31  C23 UNL     1      30.131  -8.104 -36.362  0.00  0.00    +0.000 A 
ATOM     32  C24 UNL     1      30.704  -8.235 -37.608  0.00  0.00    +0.000 A 
ATOM     33  N4  UNL     1      30.495  -7.064 -38.235  0.00  0.00    +0.000 N 
ATOM     34  N6  UNL     1      29.818  -6.267 -37.422  0.00  0.00    +0.000 NA
ATOM     35  N7  UNL     1      29.589  -6.873 -36.267  0.00  0.00    +0.000 NA
BRANCH  33  36
ATOM     36  C25 UNL     1      30.817  -6.747 -39.622  0.00  0.00    +0.000 C 
BRANCH  36  37
ATOM     37  C26 UNL     1      31.550  -7.895 -40.252  0.00  0.00    +0.000 C 
ATOM     38  O4  UNL     1      32.809  -7.858 -40.328  0.00  0.00    +0.000 OA
ATOM     39  N5  UNL     1      30.821  -9.044 -40.703  0.00  0.00    +0.000 N 
ATOM     40  H24 UNL     1      29.867  -9.197 -40.306  0.00  0.00    +0.000 HD
BRANCH  39  41
ATOM     41  C27 UNL     1      31.338 -10.019 -41.627  0.00  0.00    +0.000 A 
ATOM     42  C28 UNL     1      32.723 -10.245 -41.764  0.00  0.00    +0.000 A 
ATOM     43  C29 UNL     1      33.196 -11.188 -42.684  0.00  0.00    +0.000 A 
ATOM     44  C30 UNL     1      32.298 -11.892 -43.491  0.00  0.00    +0.000 A 
ATOM     45 BR1  UNL     1      32.950 -13.176 -44.743  0.00  0.00    +0.000 Br
ATOM     46  C31 UNL     1      30.925 -11.645 -43.389  0.00  0.00    +0.000 A 
ATOM     47  C32 UNL     1      30.447 -10.713 -42.464  0.00  0.00    +0.000 A 
ENDBRANCH  39  41
ENDBRANCH  36  37
ENDBRANCH  33  36
ENDBRANCH  30  31
ENDBRANCH  29  30
ENDBRANCH   6  29
TORSDOF 10
ENDMDL
