MODEL 1
REMARK VINA RESULT:    -5.314      0.000      0.000
REMARK INTER + INTRA:          -6.197
REMARK INTER:                  -6.090
REMARK INTRA:                  -0.106
REMARK UNBOUND:                -0.106
REMARK  Name = resultss/4CJN/ligands/lig_324_t1.pdb
REMARK  5 active torsions:
REMARK  status: ('A' for Active; 'I' for Inactive)
REMARK    1  A    between atoms: C1_1  and  O1_2
REMARK    2  A    between atoms: O1_2  and  C2_3
REMARK    3  A    between atoms: C4_5  and  O2_6
REMARK    4  A    between atoms: C9_13  and  O5_14
REMARK    5  A    between atoms: O5_14  and  C10_15
REMARK                            x       y       z     vdW  Elec       q    Type
REMARK                         _______ _______ _______ _____ _____    ______ ____
ROOT
ATOM      1  C2  UNL     1      28.244  -9.805 -34.698  0.00  0.00    +0.000 A 
ATOM      2  C3  UNL     1      26.914  -9.407 -34.499  0.00  0.00    +0.000 A 
ATOM      3  C4  UNL     1      26.044  -9.210 -35.579  0.00  0.00    +0.000 A 
ATOM      4  C5  UNL     1      26.534  -9.348 -36.912  0.00  0.00    +0.000 A 
ATOM      5  C6  UNL     1      25.783  -9.053 -38.078  0.00  0.00    +0.000 A 
ATOM      6  O3  UNL     1      24.629  -8.556 -37.999  0.00  0.00    +0.000 OA
ATOM      7  C7  UNL     1      26.351  -9.274 -39.348  0.00  0.00    +0.000 A 
ATOM      8  C8  UNL     1      25.618  -9.036 -40.617  0.00  0.00    +0.000 C 
ATOM      9  O4  UNL     1      24.371  -8.856 -40.614  0.00  0.00    +0.000 OA
ATOM     10  C9  UNL     1      26.363  -8.973 -41.931  0.00  0.00    +0.000 C 
ATOM     11  C11 UNL     1      27.681  -9.705 -41.872  0.00  0.00    +0.000 C 
ATOM     12  C12 UNL     1      28.298 -10.003 -40.726  0.00  0.00    +0.000 C 
ATOM     13  C13 UNL     1      27.670  -9.741 -39.420  0.00  0.00    +0.000 A 
ATOM     14  O6  UNL     1      28.370  -9.958 -38.315  0.00  0.00    +0.000 OA
ATOM     15  C14 UNL     1      27.875  -9.774 -37.097  0.00  0.00    +0.000 A 
ATOM     16  C15 UNL     1      28.707 -10.001 -35.999  0.00  0.00    +0.000 A 
ENDROOT
BRANCH   1  18
ATOM     17  C1  UNL     1      29.530  -9.028 -32.700  0.00  0.00    +0.000 C 
ATOM     18  O1  UNL     1      29.134 -10.024 -33.636  0.00  0.00    +0.000 OA
ENDBRANCH   1  18
BRANCH   3  19
ATOM     19  O2  UNL     1      24.715  -8.915 -35.264  0.00  0.00    +0.000 OA
ATOM     20  H5  UNL     1      24.319  -7.987 -35.256  0.00  0.00    +0.000 HD
ENDBRANCH   3  19
BRANCH  10  21
ATOM     21  O5  UNL     1      26.629  -7.619 -42.249  0.00  0.00    +0.000 OA
ATOM     22  C10 UNL     1      26.318  -7.352 -43.599  0.00  0.00    +0.000 C 
ENDBRANCH  10  21
TORSDOF 3
ENDMDL
MODEL 2
REMARK VINA RESULT:    -5.298      1.714      6.639
REMARK INTER + INTRA:          -6.179
REMARK INTER:                  -6.086
REMARK INTRA:                  -0.093
REMARK UNBOUND:                -0.106
REMARK  Name = resultss/4CJN/ligands/lig_324_t1.pdb
REMARK  5 active torsions:
REMARK  status: ('A' for Active; 'I' for Inactive)
REMARK    1  A    between atoms: C1_1  and  O1_2
REMARK    2  A    between atoms: O1_2  and  C2_3
REMARK    3  A    between atoms: C4_5  and  O2_6
REMARK    4  A    between atoms: C9_13  and  O5_14
REMARK    5  A    between atoms: O5_14  and  C10_15
REMARK                            x       y       z     vdW  Elec       q    Type
REMARK                         _______ _______ _______ _____ _____    ______ ____
ROOT
ATOM      1  C2  UNL     1      26.500  -8.762 -41.693  0.00  0.00    +0.000 A 
ATOM      2  C3  UNL     1      27.539  -9.616 -41.294  0.00  0.00    +0.000 A 
ATOM      3  C4  UNL     1      27.679 -10.015 -39.959  0.00  0.00    +0.000 A 
ATOM      4  C5  UNL     1      26.794  -9.491 -38.970  0.00  0.00    +0.000 A 
ATOM      5  C6  UNL     1      26.917  -9.725 -37.577  0.00  0.00    +0.000 A 
ATOM      6  O3  UNL     1      27.898 -10.361 -37.109  0.00  0.00    +0.000 OA
ATOM      7  C7  UNL     1      25.955  -9.197 -36.693  0.00  0.00    +0.000 A 
ATOM      8  C8  UNL     1      25.984  -9.433 -35.228  0.00  0.00    +0.000 C 
ATOM      9  O4  UNL     1      26.735 -10.317 -34.734  0.00  0.00    +0.000 OA
ATOM     10  C9  UNL     1      25.137  -8.592 -34.301  0.00  0.00    +0.000 C 
ATOM     11  C11 UNL     1      23.950  -7.986 -35.008  0.00  0.00    +0.000 C 
ATOM     12  C12 UNL     1      23.882  -7.858 -36.336  0.00  0.00    +0.000 C 
ATOM     13  C13 UNL     1      24.920  -8.413 -37.220  0.00  0.00    +0.000 A 
ATOM     14  O6  UNL     1      24.857  -8.166 -38.520  0.00  0.00    +0.000 OA
ATOM     15  C14 UNL     1      25.734  -8.648 -39.393  0.00  0.00    +0.000 A 
ATOM     16  C15 UNL     1      25.595  -8.300 -40.738  0.00  0.00    +0.000 A 
ENDROOT
BRANCH   1  18
ATOM     17  C1  UNL     1      25.059  -8.140 -43.640  0.00  0.00    +0.000 C 
ATOM     18  O1  UNL     1      26.324  -8.358 -43.026  0.00  0.00    +0.000 OA
ENDBRANCH   1  18
BRANCH   3  19
ATOM     19  O2  UNL     1      28.685 -10.947 -39.689  0.00  0.00    +0.000 OA
ATOM     20  H5  UNL     1      28.634 -11.929 -39.916  0.00  0.00    +0.000 HD
ENDBRANCH   3  19
BRANCH  10  21
ATOM     21  O5  UNL     1      25.925  -7.534 -33.784  0.00  0.00    +0.000 OA
ATOM     22  C10 UNL     1      25.107  -6.520 -33.241  0.00  0.00    +0.000 C 
ENDBRANCH  10  21
TORSDOF 3
ENDMDL
MODEL 3
REMARK VINA RESULT:    -5.285      1.988      3.895
REMARK INTER + INTRA:          -6.164
REMARK INTER:                  -6.054
REMARK INTRA:                  -0.110
REMARK UNBOUND:                -0.106
REMARK  Name = resultss/4CJN/ligands/lig_324_t1.pdb
REMARK  5 active torsions:
REMARK  status: ('A' for Active; 'I' for Inactive)
REMARK    1  A    between atoms: C1_1  and  O1_2
REMARK    2  A    between atoms: O1_2  and  C2_3
REMARK    3  A    between atoms: C4_5  and  O2_6
REMARK    4  A    between atoms: C9_13  and  O5_14
REMARK    5  A    between atoms: O5_14  and  C10_15
REMARK                            x       y       z     vdW  Elec       q    Type
REMARK                         _______ _______ _______ _____ _____    ______ ____
ROOT
ATOM      1  C2  UNL     1      26.527  -9.671 -34.864  0.00  0.00    +0.000 A 
ATOM      2  C3  UNL     1      27.856  -9.727 -34.418  0.00  0.00    +0.000 A 
ATOM      3  C4  UNL     1      28.926  -9.719 -35.321  0.00  0.00    +0.000 A 
ATOM      4  C5  UNL     1      28.665  -9.723 -36.723  0.00  0.00    +0.000 A 
ATOM      5  C6  UNL     1      29.661  -9.839 -37.725  0.00  0.00    +0.000 A 
ATOM      6  O3  UNL     1      30.868 -10.037 -37.423  0.00  0.00    +0.000 OA
ATOM      7  C7  UNL     1      29.294  -9.781 -39.085  0.00  0.00    +0.000 A 
ATOM      8  C8  UNL     1      30.278  -9.849 -40.194  0.00  0.00    +0.000 C 
ATOM      9  O4  UNL     1      31.511  -9.718 -39.968  0.00  0.00    +0.000 OA
ATOM     10  C9  UNL     1      29.818 -10.110 -41.610  0.00  0.00    +0.000 C 
ATOM     11  C11 UNL     1      28.375  -9.724 -41.819  0.00  0.00    +0.000 C 
ATOM     12  C12 UNL     1      27.509  -9.571 -40.813  0.00  0.00    +0.000 C 
ATOM     13  C13 UNL     1      27.937  -9.654 -39.407  0.00  0.00    +0.000 A 
ATOM     14  O6  UNL     1      27.019  -9.601 -38.452  0.00  0.00    +0.000 OA
ATOM     15  C14 UNL     1      27.317  -9.641 -37.158  0.00  0.00    +0.000 A 
ATOM     16  C15 UNL     1      26.272  -9.611 -36.234  0.00  0.00    +0.000 A 
ENDROOT
BRANCH   1  18
ATOM     17  C1  UNL     1      24.680  -8.502 -33.649  0.00  0.00    +0.000 C 
ATOM     18  O1  UNL     1      25.435  -9.662 -33.983  0.00  0.00    +0.000 OA
ENDBRANCH   1  18
BRANCH   3  19
ATOM     19  O2  UNL     1      30.209  -9.675 -34.767  0.00  0.00    +0.000 OA
ATOM     20  H5  UNL     1      30.605 -10.392 -34.179  0.00  0.00    +0.000 HD
ENDBRANCH   3  19
BRANCH  10  21
ATOM     21  O5  UNL     1      29.945 -11.492 -41.892  0.00  0.00    +0.000 OA
ATOM     22  C10 UNL     1      30.976 -11.719 -42.829  0.00  0.00    +0.000 C 
ENDBRANCH  10  21
TORSDOF 3
ENDMDL
MODEL 4
REMARK VINA RESULT:    -5.087      5.287      7.530
REMARK INTER + INTRA:          -5.937
REMARK INTER:                  -5.823
REMARK INTRA:                  -0.114
REMARK UNBOUND:                -0.106
REMARK  Name = resultss/4CJN/ligands/lig_324_t1.pdb
REMARK  5 active torsions:
REMARK  status: ('A' for Active; 'I' for Inactive)
REMARK    1  A    between atoms: C1_1  and  O1_2
REMARK    2  A    between atoms: O1_2  and  C2_3
REMARK    3  A    between atoms: C4_5  and  O2_6
REMARK    4  A    between atoms: C9_13  and  O5_14
REMARK    5  A    between atoms: O5_14  and  C10_15
REMARK                            x       y       z     vdW  Elec       q    Type
REMARK                         _______ _______ _______ _____ _____    ______ ____
ROOT
ATOM      1  C2  UNL     1      24.367  -7.110 -33.779  0.00  0.00    +0.000 A 
ATOM      2  C3  UNL     1      24.420  -8.453 -34.184  0.00  0.00    +0.000 A 
ATOM      3  C4  UNL     1      25.595  -9.203 -34.059  0.00  0.00    +0.000 A 
ATOM      4  C5  UNL     1      26.783  -8.578 -33.576  0.00  0.00    +0.000 A 
ATOM      5  C6  UNL     1      28.055  -9.202 -33.525  0.00  0.00    +0.000 A 
ATOM      6  O3  UNL     1      28.233 -10.356 -33.997  0.00  0.00    +0.000 OA
ATOM      7  C7  UNL     1      29.153  -8.505 -32.981  0.00  0.00    +0.000 A 
ATOM      8  C8  UNL     1      30.506  -9.101 -32.848  0.00  0.00    +0.000 C 
ATOM      9  O4  UNL     1      30.679 -10.341 -32.993  0.00  0.00    +0.000 OA
ATOM     10  C9  UNL     1      31.704  -8.223 -32.570  0.00  0.00    +0.000 C 
ATOM     11  C11 UNL     1      31.315  -6.922 -31.913  0.00  0.00    +0.000 C 
ATOM     12  C12 UNL     1      30.074  -6.429 -31.952  0.00  0.00    +0.000 C 
ATOM     13  C13 UNL     1      28.961  -7.188 -32.544  0.00  0.00    +0.000 A 
ATOM     14  O6  UNL     1      27.773  -6.609 -32.652  0.00  0.00    +0.000 OA
ATOM     15  C14 UNL     1      26.708  -7.227 -33.148  0.00  0.00    +0.000 A 
ATOM     16  C15 UNL     1      25.511  -6.515 -33.248  0.00  0.00    +0.000 A 
ENDROOT
BRANCH   1  18
ATOM     17  C1  UNL     1      22.209  -6.501 -34.886  0.00  0.00    +0.000 C 
ATOM     18  O1  UNL     1      23.200  -6.337 -33.877  0.00  0.00    +0.000 OA
ENDBRANCH   1  18
BRANCH   3  19
ATOM     19  O2  UNL     1      25.509 -10.557 -34.397  0.00  0.00    +0.000 OA
ATOM     20  H5  UNL     1      25.129 -10.909 -35.262  0.00  0.00    +0.000 HD
ENDBRANCH   3  19
BRANCH  10  21
ATOM     21  O5  UNL     1      32.351  -7.919 -33.793  0.00  0.00    +0.000 OA
ATOM     22  C10 UNL     1      33.636  -8.500 -33.837  0.00  0.00    +0.000 C 
ENDBRANCH  10  21
TORSDOF 3
ENDMDL
MODEL 5
REMARK VINA RESULT:    -5.086      2.136      7.151
REMARK INTER + INTRA:          -5.936
REMARK INTER:                  -5.821
REMARK INTRA:                  -0.115
REMARK UNBOUND:                -0.106
REMARK  Name = resultss/4CJN/ligands/lig_324_t1.pdb
REMARK  5 active torsions:
REMARK  status: ('A' for Active; 'I' for Inactive)
REMARK    1  A    between atoms: C1_1  and  O1_2
REMARK    2  A    between atoms: O1_2  and  C2_3
REMARK    3  A    between atoms: C4_5  and  O2_6
REMARK    4  A    between atoms: C9_13  and  O5_14
REMARK    5  A    between atoms: O5_14  and  C10_15
REMARK                            x       y       z     vdW  Elec       q    Type
REMARK                         _______ _______ _______ _____ _____    ______ ____
ROOT
ATOM      1  C2  UNL     1      28.025  -9.596 -39.285  0.00  0.00    +0.000 A 
ATOM      2  C3  UNL     1      26.899  -9.677 -38.452  0.00  0.00    +0.000 A 
ATOM      3  C4  UNL     1      27.025  -9.658 -37.057  0.00  0.00    +0.000 A 
ATOM      4  C5  UNL     1      28.323  -9.625 -36.467  0.00  0.00    +0.000 A 
ATOM      5  C6  UNL     1      28.574  -9.727 -35.075  0.00  0.00    +0.000 A 
ATOM      6  O3  UNL     1      27.640  -9.944 -34.260  0.00  0.00    +0.000 OA
ATOM      7  C7  UNL     1      29.896  -9.632 -34.597  0.00  0.00    +0.000 A 
ATOM      8  C8  UNL     1      30.242  -9.682 -33.154  0.00  0.00    +0.000 C 
ATOM      9  O4  UNL     1      29.346  -9.569 -32.274  0.00  0.00    +0.000 OA
ATOM     10  C9  UNL     1      31.672  -9.904 -32.717  0.00  0.00    +0.000 C 
ATOM     11  C11 UNL     1      32.661  -9.497 -33.781  0.00  0.00    +0.000 C 
ATOM     12  C12 UNL     1      32.330  -9.360 -35.068  0.00  0.00    +0.000 C 
ATOM     13  C13 UNL     1      30.936  -9.483 -35.524  0.00  0.00    +0.000 A 
ATOM     14  O6  UNL     1      30.679  -9.443 -36.824  0.00  0.00    +0.000 OA
ATOM     15  C14 UNL     1      29.450  -9.519 -37.322  0.00  0.00    +0.000 A 
ATOM     16  C15 UNL     1      29.292  -9.500 -38.709  0.00  0.00    +0.000 A 
ENDROOT
BRANCH   1  18
ATOM     17  C1  UNL     1      26.705  -9.652 -41.408  0.00  0.00    +0.000 C 
ATOM     18  O1  UNL     1      27.931  -9.598 -40.685  0.00  0.00    +0.000 OA
ENDBRANCH   1  18
BRANCH   3  19
ATOM     19  O2  UNL     1      25.834  -9.640 -36.325  0.00  0.00    +0.000 OA
ATOM     20  H5  UNL     1      25.396 -10.455 -35.923  0.00  0.00    +0.000 HD
ENDBRANCH   3  19
BRANCH  10  21
ATOM     21  O5  UNL     1      31.866 -11.280 -32.443  0.00  0.00    +0.000 OA
ATOM     22  C10 UNL     1      32.116 -11.487 -31.070  0.00  0.00    +0.000 C 
ENDBRANCH  10  21
TORSDOF 3
ENDMDL
MODEL 6
REMARK VINA RESULT:    -5.026      1.837      6.056
REMARK INTER + INTRA:          -5.868
REMARK INTER:                  -5.763
REMARK INTRA:                  -0.104
REMARK UNBOUND:                -0.106
REMARK  Name = resultss/4CJN/ligands/lig_324_t1.pdb
REMARK  5 active torsions:
REMARK  status: ('A' for Active; 'I' for Inactive)
REMARK    1  A    between atoms: C1_1  and  O1_2
REMARK    2  A    between atoms: O1_2  and  C2_3
REMARK    3  A    between atoms: C4_5  and  O2_6
REMARK    4  A    between atoms: C9_13  and  O5_14
REMARK    5  A    between atoms: O5_14  and  C10_15
REMARK                            x       y       z     vdW  Elec       q    Type
REMARK                         _______ _______ _______ _____ _____    ______ ____
ROOT
ATOM      1  C2  UNL     1      27.929 -10.519 -40.369  0.00  0.00    +0.000 A 
ATOM      2  C3  UNL     1      27.067  -9.583 -40.962  0.00  0.00    +0.000 A 
ATOM      3  C4  UNL     1      26.254  -8.750 -40.183  0.00  0.00    +0.000 A 
ATOM      4  C5  UNL     1      26.245  -8.899 -38.765  0.00  0.00    +0.000 A 
ATOM      5  C6  UNL     1      25.375  -8.200 -37.890  0.00  0.00    +0.000 A 
ATOM      6  O3  UNL     1      24.472  -7.446 -38.336  0.00  0.00    +0.000 OA
ATOM      7  C7  UNL     1      25.488  -8.388 -36.497  0.00  0.00    +0.000 A 
ATOM      8  C8  UNL     1      24.649  -7.663 -35.511  0.00  0.00    +0.000 C 
ATOM      9  O4  UNL     1      23.962  -6.666 -35.861  0.00  0.00    +0.000 OA
ATOM     10  C9  UNL     1      24.579  -8.130 -34.075  0.00  0.00    +0.000 C 
ATOM     11  C11 UNL     1      25.791  -8.939 -33.681  0.00  0.00    +0.000 C 
ATOM     12  C12 UNL     1      26.602  -9.515 -34.572  0.00  0.00    +0.000 C 
ATOM     13  C13 UNL     1      26.436  -9.302 -36.019  0.00  0.00    +0.000 A 
ATOM     14  O6  UNL     1      27.202  -9.982 -36.861  0.00  0.00    +0.000 OA
ATOM     15  C14 UNL     1      27.139  -9.832 -38.179  0.00  0.00    +0.000 A 
ATOM     16  C15 UNL     1      27.968 -10.621 -38.979  0.00  0.00    +0.000 A 
ENDROOT
BRANCH   1  18
ATOM     17  C1  UNL     1      29.899 -10.908 -41.859  0.00  0.00    +0.000 C 
ATOM     18  O1  UNL     1      28.767 -11.356 -41.121  0.00  0.00    +0.000 OA
ENDBRANCH   1  18
BRANCH   3  19
ATOM     19  O2  UNL     1      25.511  -7.785 -40.871  0.00  0.00    +0.000 OA
ATOM     20  H5  UNL     1      24.961  -7.064 -40.431  0.00  0.00    +0.000 HD
ENDBRANCH   3  19
BRANCH  10  21
ATOM     21  O5  UNL     1      23.435  -8.948 -33.908  0.00  0.00    +0.000 OA
ATOM     22  C10 UNL     1      23.048  -8.997 -32.552  0.00  0.00    +0.000 C 
ENDBRANCH  10  21
TORSDOF 3
ENDMDL
MODEL 7
REMARK VINA RESULT:    -5.006      1.767      2.148
REMARK INTER + INTRA:          -5.844
REMARK INTER:                  -5.730
REMARK INTRA:                  -0.114
REMARK UNBOUND:                -0.106
REMARK  Name = resultss/4CJN/ligands/lig_324_t1.pdb
REMARK  5 active torsions:
REMARK  status: ('A' for Active; 'I' for Inactive)
REMARK    1  A    between atoms: C1_1  and  O1_2
REMARK    2  A    between atoms: O1_2  and  C2_3
REMARK    3  A    between atoms: C4_5  and  O2_6
REMARK    4  A    between atoms: C9_13  and  O5_14
REMARK    5  A    between atoms: O5_14  and  C10_15
REMARK                            x       y       z     vdW  Elec       q    Type
REMARK                         _______ _______ _______ _____ _____    ______ ____
ROOT
ATOM      1  C2  UNL     1      29.881  -9.573 -34.149  0.00  0.00    +0.000 A 
ATOM      2  C3  UNL     1      28.491  -9.752 -34.076  0.00  0.00    +0.000 A 
ATOM      3  C4  UNL     1      27.723  -9.947 -35.230  0.00  0.00    +0.000 A 
ATOM      4  C5  UNL     1      28.349  -9.893 -36.511  0.00  0.00    +0.000 A 
ATOM      5  C6  UNL     1      27.655  -9.952 -37.746  0.00  0.00    +0.000 A 
ATOM      6  O3  UNL     1      26.397  -9.970 -37.786  0.00  0.00    +0.000 OA
ATOM      7  C7  UNL     1      28.381  -9.941 -38.955  0.00  0.00    +0.000 A 
ATOM      8  C8  UNL     1      27.736 -10.045 -40.288  0.00  0.00    +0.000 C 
ATOM      9  O4  UNL     1      26.529 -10.392 -40.393  0.00  0.00    +0.000 OA
ATOM     10  C9  UNL     1      28.511  -9.703 -41.540  0.00  0.00    +0.000 C 
ATOM     11  C11 UNL     1      30.001  -9.829 -41.340  0.00  0.00    +0.000 C 
ATOM     12  C12 UNL     1      30.575  -9.830 -40.134  0.00  0.00    +0.000 C 
ATOM     13  C13 UNL     1      29.776  -9.826 -38.898  0.00  0.00    +0.000 A 
ATOM     14  O6  UNL     1      30.396  -9.720 -37.731  0.00  0.00    +0.000 OA
ATOM     15  C14 UNL     1      29.757  -9.735 -36.567  0.00  0.00    +0.000 A 
ATOM     16  C15 UNL     1      30.503  -9.584 -35.396  0.00  0.00    +0.000 A 
ENDROOT
BRANCH   1  18
ATOM     17  C1  UNL     1      31.662 -10.318 -32.560  0.00  0.00    +0.000 C 
ATOM     18  O1  UNL     1      30.679  -9.392 -33.009  0.00  0.00    +0.000 OA
ENDBRANCH   1  18
BRANCH   3  19
ATOM     19  O2  UNL     1      26.365 -10.218 -35.037  0.00  0.00    +0.000 OA
ATOM     20  H5  UNL     1      25.634  -9.522 -35.046  0.00  0.00    +0.000 HD
ENDBRANCH   3  19
BRANCH  10  21
ATOM     21  O5  UNL     1      28.231  -8.364 -41.909  0.00  0.00    +0.000 OA
ATOM     22  C10 UNL     1      28.693  -8.097 -43.215  0.00  0.00    +0.000 C 
ENDBRANCH  10  21
TORSDOF 3
ENDMDL
MODEL 8
REMARK VINA RESULT:    -4.971      1.891      6.145
REMARK INTER + INTRA:          -5.803
REMARK INTER:                  -5.690
REMARK INTRA:                  -0.114
REMARK UNBOUND:                -0.106
REMARK  Name = resultss/4CJN/ligands/lig_324_t1.pdb
REMARK  5 active torsions:
REMARK  status: ('A' for Active; 'I' for Inactive)
REMARK    1  A    between atoms: C1_1  and  O1_2
REMARK    2  A    between atoms: O1_2  and  C2_3
REMARK    3  A    between atoms: C4_5  and  O2_6
REMARK    4  A    between atoms: C9_13  and  O5_14
REMARK    5  A    between atoms: O5_14  and  C10_15
REMARK                            x       y       z     vdW  Elec       q    Type
REMARK                         _______ _______ _______ _____ _____    ______ ____
ROOT
ATOM      1  C2  UNL     1      29.555 -10.400 -42.239  0.00  0.00    +0.000 A 
ATOM      2  C3  UNL     1      28.313  -9.860 -42.606  0.00  0.00    +0.000 A 
ATOM      3  C4  UNL     1      27.437  -9.337 -41.646  0.00  0.00    +0.000 A 
ATOM      4  C5  UNL     1      27.778  -9.415 -40.264  0.00  0.00    +0.000 A 
ATOM      5  C6  UNL     1      26.919  -9.034 -39.202  0.00  0.00    +0.000 A 
ATOM      6  O3  UNL     1      25.734  -8.671 -39.423  0.00  0.00    +0.000 OA
ATOM      7  C7  UNL     1      27.379  -9.106 -37.872  0.00  0.00    +0.000 A 
ATOM      8  C8  UNL     1      26.562  -8.684 -36.707  0.00  0.00    +0.000 C 
ATOM      9  O4  UNL     1      25.507  -8.013 -36.871  0.00  0.00    +0.000 OA
ATOM     10  C9  UNL     1      26.965  -9.080 -35.305  0.00  0.00    +0.000 C 
ATOM     11  C11 UNL     1      28.439  -9.386 -35.202  0.00  0.00    +0.000 C 
ATOM     12  C12 UNL     1      29.197  -9.675 -36.263  0.00  0.00    +0.000 C 
ATOM     13  C13 UNL     1      28.669  -9.600 -37.635  0.00  0.00    +0.000 A 
ATOM     14  O6  UNL     1      29.433 -10.000 -38.641  0.00  0.00    +0.000 OA
ATOM     15  C14 UNL     1      29.047  -9.942 -39.911  0.00  0.00    +0.000 A 
ATOM     16  C15 UNL     1      29.917 -10.420 -40.893  0.00  0.00    +0.000 A 
ENDROOT
BRANCH   1  18
ATOM     17  C1  UNL     1      31.250 -12.084 -42.977  0.00  0.00    +0.000 C 
ATOM     18  O1  UNL     1      30.460 -10.917 -43.179  0.00  0.00    +0.000 OA
ENDBRANCH   1  18
BRANCH   3  19
ATOM     19  O2  UNL     1      26.272  -8.732 -42.129  0.00  0.00    +0.000 OA
ATOM     20  H5  UNL     1      26.218  -8.188 -42.976  0.00  0.00    +0.000 HD
ENDBRANCH   3  19
BRANCH  10  21
ATOM     21  O5  UNL     1      26.250 -10.243 -34.928  0.00  0.00    +0.000 OA
ATOM     22  C10 UNL     1      25.283  -9.941 -33.947  0.00  0.00    +0.000 C 
ENDBRANCH  10  21
TORSDOF 3
ENDMDL
MODEL 9
REMARK VINA RESULT:    -4.826      1.923      6.873
REMARK INTER + INTRA:          -5.638
REMARK INTER:                  -5.524
REMARK INTRA:                  -0.113
REMARK UNBOUND:                -0.106
REMARK  Name = resultss/4CJN/ligands/lig_324_t1.pdb
REMARK  5 active torsions:
REMARK  status: ('A' for Active; 'I' for Inactive)
REMARK    1  A    between atoms: C1_1  and  O1_2
REMARK    2  A    between atoms: O1_2  and  C2_3
REMARK    3  A    between atoms: C4_5  and  O2_6
REMARK    4  A    between atoms: C9_13  and  O5_14
REMARK    5  A    between atoms: O5_14  and  C10_15
REMARK                            x       y       z     vdW  Elec       q    Type
REMARK                         _______ _______ _______ _____ _____    ______ ____
ROOT
ATOM      1  C2  UNL     1      28.893  -9.803 -41.011  0.00  0.00    +0.000 A 
ATOM      2  C3  UNL     1      30.224  -9.889 -40.573  0.00  0.00    +0.000 A 
ATOM      3  C4  UNL     1      30.538  -9.929 -39.209  0.00  0.00    +0.000 A 
ATOM      4  C5  UNL     1      29.496  -9.811 -38.242  0.00  0.00    +0.000 A 
ATOM      5  C6  UNL     1      29.706  -9.714 -36.843  0.00  0.00    +0.000 A 
ATOM      6  O3  UNL     1      30.868  -9.640 -36.363  0.00  0.00    +0.000 OA
ATOM      7  C7  UNL     1      28.599  -9.651 -35.974  0.00  0.00    +0.000 A 
ATOM      8  C8  UNL     1      28.730  -9.595 -34.496  0.00  0.00    +0.000 C 
ATOM      9  O4  UNL     1      29.833  -9.845 -33.939  0.00  0.00    +0.000 OA
ATOM     10  C9  UNL     1      27.549  -9.204 -33.637  0.00  0.00    +0.000 C 
ATOM     11  C11 UNL     1      26.234  -9.452 -34.333  0.00  0.00    +0.000 C 
ATOM     12  C12 UNL     1      26.126  -9.596 -35.656  0.00  0.00    +0.000 C 
ATOM     13  C13 UNL     1      27.312  -9.641 -36.527  0.00  0.00    +0.000 A 
ATOM     14  O6  UNL     1      27.143  -9.679 -37.841  0.00  0.00    +0.000 OA
ATOM     15  C14 UNL     1      28.155  -9.749 -38.700  0.00  0.00    +0.000 A 
ATOM     16  C15 UNL     1      27.869  -9.751 -40.066  0.00  0.00    +0.000 A 
ENDROOT
BRANCH   1  18
ATOM     17  C1  UNL     1      27.323  -9.254 -42.878  0.00  0.00    +0.000 C 
ATOM     18  O1  UNL     1      28.546  -9.777 -42.370  0.00  0.00    +0.000 OA
ENDBRANCH   1  18
BRANCH   3  19
ATOM     19  O2  UNL     1      31.885 -10.118 -38.885  0.00  0.00    +0.000 OA
ATOM     20  H5  UNL     1      32.424  -9.504 -38.294  0.00  0.00    +0.000 HD
ENDBRANCH   3  19
BRANCH  10  21
ATOM     21  O5  UNL     1      27.631  -7.822 -33.337  0.00  0.00    +0.000 OA
ATOM     22  C10 UNL     1      27.997  -7.622 -31.989  0.00  0.00    +0.000 C 
ENDBRANCH  10  21
TORSDOF 3
ENDMDL
