MODEL 1
REMARK VINA RESULT:    -7.256      0.000      0.000
REMARK INTER + INTRA:         -10.314
REMARK INTER:                 -10.014
REMARK INTRA:                  -0.300
REMARK UNBOUND:                -0.300
REMARK  Name = resultss/4CJN/ligands/lig_437_t2.pdb
REMARK  9 active torsions:
REMARK  status: ('A' for Active; 'I' for Inactive)
REMARK    1  A    between atoms: C1_1  and  O1_2
REMARK    2  A    between atoms: O1_2  and  C2_3
REMARK    3  A    between atoms: C5_6  and  N1_7
REMARK    4  A    between atoms: C6_8  and  S1_9
REMARK    5  A    between atoms: N2_10  and  N3_11
REMARK    6  A    between atoms: C7_12  and  C8_14
REMARK    7  A    between atoms: C18_25  and  C19_26
REMARK    8  A    between atoms: C25_33  and  O3_34
REMARK    9  A    between atoms: O3_34  and  C26_35
REMARK                            x       y       z     vdW  Elec       q    Type
REMARK                         _______ _______ _______ _____ _____    ______ ____
ROOT
ATOM      1  N3  UNL     1      23.034  -7.950 -41.988  0.00  0.00    +0.000 N 
ATOM      2  C7  UNL     1      23.776  -7.217 -41.000  0.00  0.00    +0.000 C 
ATOM      3  O2  UNL     1      23.468  -6.021 -40.749  0.00  0.00    +0.000 OA
ATOM      4  H8  UNL     1      23.468  -8.798 -42.416  0.00  0.00    +0.000 HD
ENDROOT
BRANCH   2   5
ATOM      5  C8  UNL     1      24.904  -7.853 -40.288  0.00  0.00    +0.000 A 
ATOM      6  C9  UNL     1      24.890  -7.983 -38.882  0.00  0.00    +0.000 A 
ATOM      7  C10 UNL     1      25.979  -8.609 -38.290  0.00  0.00    +0.000 A 
ATOM      8  C11 UNL     1      27.041  -9.084 -39.029  0.00  0.00    +0.000 A 
ATOM      9  N4  UNL     1      27.948  -9.711 -38.241  0.00  0.00    +0.000 N 
ATOM     10  C12 UNL     1      27.449  -9.605 -36.990  0.00  0.00    +0.000 A 
ATOM     11  C13 UNL     1      28.011 -10.104 -35.816  0.00  0.00    +0.000 A 
ATOM     12  C14 UNL     1      27.311  -9.900 -34.611  0.00  0.00    +0.000 A 
ATOM     13  C15 UNL     1      26.076  -9.213 -34.606  0.00  0.00    +0.000 A 
ATOM     14  C16 UNL     1      25.526  -8.723 -35.805  0.00  0.00    +0.000 A 
ATOM     15  C17 UNL     1      26.245  -8.936 -36.980  0.00  0.00    +0.000 A 
ATOM     16  C18 UNL     1      27.052  -8.937 -40.423  0.00  0.00    +0.000 A 
ATOM     17  N5  UNL     1      25.972  -8.332 -41.003  0.00  0.00    +0.000 NA
ATOM     18  H10 UNL     1      28.823 -10.204 -38.525  0.00  0.00    +0.000 HD
BRANCH  16  19
ATOM     19  C19 UNL     1      28.164  -9.406 -41.273  0.00  0.00    +0.000 A 
ATOM     20  C20 UNL     1      28.792 -10.630 -40.987  0.00  0.00    +0.000 A 
ATOM     21  C21 UNL     1      29.830 -11.099 -41.799  0.00  0.00    +0.000 A 
ATOM     22  C22 UNL     1      30.236 -10.359 -42.912  0.00  0.00    +0.000 A 
ATOM     23  C23 UNL     1      29.602  -9.153 -43.218  0.00  0.00    +0.000 A 
ATOM     24  C24 UNL     1      28.566  -8.679 -42.409  0.00  0.00    +0.000 A 
ENDBRANCH  16  19
ENDBRANCH   2   5
BRANCH   1  27
ATOM     25  N1  UNL     1      20.715  -6.543 -44.497  0.00  0.00    +0.000 N 
ATOM     26  C6  UNL     1      21.904  -7.085 -43.905  0.00  0.00    +0.000 C 
ATOM     27  N2  UNL     1      21.923  -7.387 -42.638  0.00  0.00    +0.000 NA
ATOM     28  H6  UNL     1      20.815  -6.000 -45.384  0.00  0.00    +0.000 HD
BRANCH  25  32
ATOM     29  C2  UNL     1      16.929  -6.559 -42.556  0.00  0.00    +0.000 A 
ATOM     30  C3  UNL     1      18.027  -5.884 -41.994  0.00  0.00    +0.000 A 
ATOM     31  C4  UNL     1      19.261  -5.884 -42.646  0.00  0.00    +0.000 A 
ATOM     32  C5  UNL     1      19.428  -6.566 -43.857  0.00  0.00    +0.000 A 
ATOM     33  C25 UNL     1      18.326  -7.216 -44.450  0.00  0.00    +0.000 A 
ATOM     34  C27 UNL     1      17.086  -7.219 -43.780  0.00  0.00    +0.000 A 
BRANCH  29  36
ATOM     35  C1  UNL     1      15.351  -7.406 -40.811  0.00  0.00    +0.000 C 
ATOM     36  O1  UNL     1      15.671  -6.595 -41.937  0.00  0.00    +0.000 OA
ENDBRANCH  29  36
BRANCH  33  37
ATOM     37  O3  UNL     1      18.488  -7.824 -45.705  0.00  0.00    +0.000 OA
ATOM     38  C26 UNL     1      17.856  -7.389 -46.905  0.00  0.00    +0.000 C 
ENDBRANCH  33  37
ENDBRANCH  25  32
BRANCH  26  39
ATOM     39  S1  UNL     1      23.387  -7.203 -44.915  0.00  0.00    +0.000 S 
ATOM     40  H7  UNL     1      23.999  -8.085 -44.004  0.00  0.00    +0.000 HD
ENDBRANCH  26  39
ENDBRANCH   1  27
TORSDOF 7
ENDMDL
MODEL 2
REMARK VINA RESULT:    -6.832      2.538      4.193
REMARK INTER + INTRA:          -9.728
REMARK INTER:                  -9.602
REMARK INTRA:                  -0.125
REMARK UNBOUND:                -0.300
REMARK  Name = resultss/4CJN/ligands/lig_437_t2.pdb
REMARK  9 active torsions:
REMARK  status: ('A' for Active; 'I' for Inactive)
REMARK    1  A    between atoms: C1_1  and  O1_2
REMARK    2  A    between atoms: O1_2  and  C2_3
REMARK    3  A    between atoms: C5_6  and  N1_7
REMARK    4  A    between atoms: C6_8  and  S1_9
REMARK    5  A    between atoms: N2_10  and  N3_11
REMARK    6  A    between atoms: C7_12  and  C8_14
REMARK    7  A    between atoms: C18_25  and  C19_26
REMARK    8  A    between atoms: C25_33  and  O3_34
REMARK    9  A    between atoms: O3_34  and  C26_35
REMARK                            x       y       z     vdW  Elec       q    Type
REMARK                         _______ _______ _______ _____ _____    ______ ____
ROOT
ATOM      1  N3  UNL     1      25.389  -7.820 -42.064  0.00  0.00    +0.000 N 
ATOM      2  C7  UNL     1      26.066  -9.057 -42.338  0.00  0.00    +0.000 C 
ATOM      3  O2  UNL     1      25.556  -9.882 -43.143  0.00  0.00    +0.000 OA
ATOM      4  H8  UNL     1      25.629  -7.298 -41.193  0.00  0.00    +0.000 HD
ENDROOT
BRANCH   2   5
ATOM      5  C8  UNL     1      27.347  -9.371 -41.673  0.00  0.00    +0.000 A 
ATOM      6  C9  UNL     1      27.552  -9.057 -40.311  0.00  0.00    +0.000 A 
ATOM      7  C10 UNL     1      28.777  -9.403 -39.756  0.00  0.00    +0.000 A 
ATOM      8  C11 UNL     1      29.765 -10.022 -40.490  0.00  0.00    +0.000 A 
ATOM      9  N4  UNL     1      30.839 -10.318 -39.719  0.00  0.00    +0.000 N 
ATOM     10  C12 UNL     1      30.519  -9.856 -38.490  0.00  0.00    +0.000 A 
ATOM     11  C13 UNL     1      31.296  -9.931 -37.335  0.00  0.00    +0.000 A 
ATOM     12  C14 UNL     1      30.761  -9.403 -36.145  0.00  0.00    +0.000 A 
ATOM     13  C15 UNL     1      29.472  -8.822 -36.134  0.00  0.00    +0.000 A 
ATOM     14  C16 UNL     1      28.704  -8.763 -37.311  0.00  0.00    +0.000 A 
ATOM     15  C17 UNL     1      29.263  -9.289 -38.474  0.00  0.00    +0.000 A 
ATOM     16  C18 UNL     1      29.557 -10.316 -41.845  0.00  0.00    +0.000 A 
ATOM     17  N5  UNL     1      28.345  -9.987 -42.385  0.00  0.00    +0.000 NA
ATOM     18  H10 UNL     1      31.712 -10.822 -39.989  0.00  0.00    +0.000 HD
BRANCH  16  19
ATOM     19  C19 UNL     1      30.579 -10.961 -42.694  0.00  0.00    +0.000 A 
ATOM     20  C20 UNL     1      30.766 -12.352 -42.625  0.00  0.00    +0.000 A 
ATOM     21  C21 UNL     1      31.712 -12.980 -43.442  0.00  0.00    +0.000 A 
ATOM     22  C22 UNL     1      32.465 -12.227 -44.345  0.00  0.00    +0.000 A 
ATOM     23  C23 UNL     1      32.270 -10.847 -44.438  0.00  0.00    +0.000 A 
ATOM     24  C24 UNL     1      31.327 -10.215 -43.623  0.00  0.00    +0.000 A 
ENDBRANCH  16  19
ENDBRANCH   2   5
BRANCH   1  27
ATOM     25  N1  UNL     1      22.105  -6.382 -42.962  0.00  0.00    +0.000 N 
ATOM     26  C6  UNL     1      23.277  -6.715 -42.204  0.00  0.00    +0.000 C 
ATOM     27  N2  UNL     1      24.198  -7.472 -42.726  0.00  0.00    +0.000 NA
ATOM     28  H6  UNL     1      21.253  -6.085 -42.437  0.00  0.00    +0.000 HD
BRANCH  25  32
ATOM     29  C2  UNL     1      21.838  -7.022 -47.159  0.00  0.00    +0.000 A 
ATOM     30  C3  UNL     1      23.079  -7.055 -46.501  0.00  0.00    +0.000 A 
ATOM     31  C4  UNL     1      23.149  -6.848 -45.123  0.00  0.00    +0.000 A 
ATOM     32  C5  UNL     1      21.991  -6.591 -44.379  0.00  0.00    +0.000 A 
ATOM     33  C25 UNL     1      20.735  -6.592 -45.021  0.00  0.00    +0.000 A 
ATOM     34  C27 UNL     1      20.675  -6.793 -46.415  0.00  0.00    +0.000 A 
BRANCH  29  36
ATOM     35  C1  UNL     1      20.801  -6.511 -49.376  0.00  0.00    +0.000 C 
ATOM     36  O1  UNL     1      21.715  -7.217 -48.543  0.00  0.00    +0.000 OA
ENDBRANCH  29  36
BRANCH  33  37
ATOM     37  O3  UNL     1      19.575  -6.417 -44.250  0.00  0.00    +0.000 OA
ATOM     38  C26 UNL     1      18.285  -6.904 -44.603  0.00  0.00    +0.000 C 
ENDBRANCH  33  37
ENDBRANCH  25  32
BRANCH  26  39
ATOM     39  S1  UNL     1      23.370  -6.179 -40.490  0.00  0.00    +0.000 S 
ATOM     40  H7  UNL     1      24.742  -6.481 -40.416  0.00  0.00    +0.000 HD
ENDBRANCH  26  39
ENDBRANCH   1  27
TORSDOF 7
ENDMDL
MODEL 3
REMARK VINA RESULT:    -6.827      3.233      9.299
REMARK INTER + INTRA:          -9.721
REMARK INTER:                 -10.102
REMARK INTRA:                   0.380
REMARK UNBOUND:                -0.300
REMARK  Name = resultss/4CJN/ligands/lig_437_t2.pdb
REMARK  9 active torsions:
REMARK  status: ('A' for Active; 'I' for Inactive)
REMARK    1  A    between atoms: C1_1  and  O1_2
REMARK    2  A    between atoms: O1_2  and  C2_3
REMARK    3  A    between atoms: C5_6  and  N1_7
REMARK    4  A    between atoms: C6_8  and  S1_9
REMARK    5  A    between atoms: N2_10  and  N3_11
REMARK    6  A    between atoms: C7_12  and  C8_14
REMARK    7  A    between atoms: C18_25  and  C19_26
REMARK    8  A    between atoms: C25_33  and  O3_34
REMARK    9  A    between atoms: O3_34  and  C26_35
REMARK                            x       y       z     vdW  Elec       q    Type
REMARK                         _______ _______ _______ _____ _____    ______ ____
ROOT
ATOM      1  N3  UNL     1      24.305  -8.771 -40.371  0.00  0.00    +0.000 N 
ATOM      2  C7  UNL     1      23.868  -7.488 -40.845  0.00  0.00    +0.000 C 
ATOM      3  O2  UNL     1      23.880  -6.497 -40.065  0.00  0.00    +0.000 OA
ATOM      4  H8  UNL     1      24.006  -9.626 -40.889  0.00  0.00    +0.000 HD
ENDROOT
BRANCH   2   5
ATOM      5  C8  UNL     1      23.393  -7.326 -42.235  0.00  0.00    +0.000 A 
ATOM      6  C9  UNL     1      22.015  -7.196 -42.518  0.00  0.00    +0.000 A 
ATOM      7  C10 UNL     1      21.653  -7.028 -43.848  0.00  0.00    +0.000 A 
ATOM      8  C11 UNL     1      22.584  -6.994 -44.863  0.00  0.00    +0.000 A 
ATOM      9  N4  UNL     1      21.999  -6.756 -46.061  0.00  0.00    +0.000 N 
ATOM     10  C12 UNL     1      20.679  -6.660 -45.787  0.00  0.00    +0.000 A 
ATOM     11  C13 UNL     1      19.649  -6.408 -46.692  0.00  0.00    +0.000 A 
ATOM     12  C14 UNL     1      18.336  -6.327 -46.190  0.00  0.00    +0.000 A 
ATOM     13  C15 UNL     1      18.084  -6.494 -44.809  0.00  0.00    +0.000 A 
ATOM     14  C16 UNL     1      19.141  -6.742 -43.914  0.00  0.00    +0.000 A 
ATOM     15  C17 UNL     1      20.429  -6.822 -44.442  0.00  0.00    +0.000 A 
ATOM     16  C18 UNL     1      23.948  -7.139 -44.572  0.00  0.00    +0.000 A 
ATOM     17  N5  UNL     1      24.303  -7.290 -43.261  0.00  0.00    +0.000 NA
ATOM     18  H10 UNL     1      22.454  -6.634 -46.992  0.00  0.00    +0.000 HD
BRANCH  16  19
ATOM     19  C19 UNL     1      24.997  -7.130 -45.611  0.00  0.00    +0.000 A 
ATOM     20  C20 UNL     1      24.635  -7.097 -46.968  0.00  0.00    +0.000 A 
ATOM     21  C21 UNL     1      25.619  -7.062 -47.962  0.00  0.00    +0.000 A 
ATOM     22  C22 UNL     1      26.970  -7.043 -47.608  0.00  0.00    +0.000 A 
ATOM     23  C23 UNL     1      27.340  -7.053 -46.261  0.00  0.00    +0.000 A 
ATOM     24  C24 UNL     1      26.361  -7.089 -45.265  0.00  0.00    +0.000 A 
ENDBRANCH  16  19
ENDBRANCH   2   5
BRANCH   1  27
ATOM     25  N1  UNL     1      26.517  -9.246 -37.449  0.00  0.00    +0.000 N 
ATOM     26  C6  UNL     1      26.077  -9.116 -38.809  0.00  0.00    +0.000 C 
ATOM     27  N2  UNL     1      24.814  -8.939 -39.072  0.00  0.00    +0.000 NA
ATOM     28  H6  UNL     1      27.432  -9.720 -37.276  0.00  0.00    +0.000 HD
BRANCH  25  32
ATOM     29  C2  UNL     1      24.047  -8.230 -34.138  0.00  0.00    +0.000 A 
ATOM     30  C3  UNL     1      23.756  -7.758 -35.429  0.00  0.00    +0.000 A 
ATOM     31  C4  UNL     1      24.573  -8.104 -36.505  0.00  0.00    +0.000 A 
ATOM     32  C5  UNL     1      25.700  -8.913 -36.315  0.00  0.00    +0.000 A 
ATOM     33  C25 UNL     1      25.983  -9.424 -35.031  0.00  0.00    +0.000 A 
ATOM     34  C27 UNL     1      25.158  -9.061 -33.949  0.00  0.00    +0.000 A 
BRANCH  29  36
ATOM     35  C1  UNL     1      22.928  -6.576 -32.633  0.00  0.00    +0.000 C 
ATOM     36  O1  UNL     1      23.262  -7.904 -33.022  0.00  0.00    +0.000 OA
ENDBRANCH  29  36
BRANCH  33  37
ATOM     37  O3  UNL     1      27.068 -10.301 -34.871  0.00  0.00    +0.000 OA
ATOM     38  C26 UNL     1      28.335  -9.935 -34.334  0.00  0.00    +0.000 C 
ENDBRANCH  33  37
ENDBRANCH  25  32
BRANCH  26  39
ATOM     39  S1  UNL     1      27.282  -9.340 -40.125  0.00  0.00    +0.000 S 
ATOM     40  H7  UNL     1      26.736  -8.283 -40.875  0.00  0.00    +0.000 HD
ENDBRANCH  26  39
ENDBRANCH   1  27
TORSDOF 7
ENDMDL
MODEL 4
REMARK VINA RESULT:    -6.772      3.664      6.949
REMARK INTER + INTRA:          -9.646
REMARK INTER:                  -8.814
REMARK INTRA:                  -0.832
REMARK UNBOUND:                -0.300
REMARK  Name = resultss/4CJN/ligands/lig_437_t2.pdb
REMARK  9 active torsions:
REMARK  status: ('A' for Active; 'I' for Inactive)
REMARK    1  A    between atoms: C1_1  and  O1_2
REMARK    2  A    between atoms: O1_2  and  C2_3
REMARK    3  A    between atoms: C5_6  and  N1_7
REMARK    4  A    between atoms: C6_8  and  S1_9
REMARK    5  A    between atoms: N2_10  and  N3_11
REMARK    6  A    between atoms: C7_12  and  C8_14
REMARK    7  A    between atoms: C18_25  and  C19_26
REMARK    8  A    between atoms: C25_33  and  O3_34
REMARK    9  A    between atoms: O3_34  and  C26_35
REMARK                            x       y       z     vdW  Elec       q    Type
REMARK                         _______ _______ _______ _____ _____    ______ ____
ROOT
ATOM      1  N3  UNL     1      27.046  -8.054 -39.746  0.00  0.00    +0.000 N 
ATOM      2  C7  UNL     1      26.201  -8.694 -38.776  0.00  0.00    +0.000 C 
ATOM      3  O2  UNL     1      25.114  -9.217 -39.143  0.00  0.00    +0.000 OA
ATOM      4  H8  UNL     1      27.758  -7.367 -39.417  0.00  0.00    +0.000 HD
ENDROOT
BRANCH   2   5
ATOM      5  C8  UNL     1      26.593  -8.732 -37.352  0.00  0.00    +0.000 A 
ATOM      6  C9  UNL     1      27.918  -9.042 -36.975  0.00  0.00    +0.000 A 
ATOM      7  C10 UNL     1      28.210  -9.038 -35.617  0.00  0.00    +0.000 A 
ATOM      8  C11 UNL     1      27.257  -8.751 -34.663  0.00  0.00    +0.000 A 
ATOM      9  N4  UNL     1      27.792  -8.744 -33.419  0.00  0.00    +0.000 N 
ATOM     10  C12 UNL     1      29.095  -9.052 -33.602  0.00  0.00    +0.000 A 
ATOM     11  C13 UNL     1      30.079  -9.159 -32.621  0.00  0.00    +0.000 A 
ATOM     12  C14 UNL     1      31.389  -9.471 -33.032  0.00  0.00    +0.000 A 
ATOM     13  C15 UNL     1      31.685  -9.662 -34.401  0.00  0.00    +0.000 A 
ATOM     14  C16 UNL     1      30.675  -9.543 -35.374  0.00  0.00    +0.000 A 
ATOM     15  C17 UNL     1      29.388  -9.239 -34.935  0.00  0.00    +0.000 A 
ATOM     16  C18 UNL     1      25.941  -8.459 -35.049  0.00  0.00    +0.000 A 
ATOM     17  N5  UNL     1      25.660  -8.450 -36.386  0.00  0.00    +0.000 NA
ATOM     18  H10 UNL     1      27.325  -8.517 -32.513  0.00  0.00    +0.000 HD
BRANCH  16  19
ATOM     19  C19 UNL     1      24.867  -8.160 -34.080  0.00  0.00    +0.000 A 
ATOM     20  C20 UNL     1      24.413  -6.839 -33.929  0.00  0.00    +0.000 A 
ATOM     21  C21 UNL     1      23.378  -6.546 -33.034  0.00  0.00    +0.000 A 
ATOM     22  C22 UNL     1      22.780  -7.570 -32.296  0.00  0.00    +0.000 A 
ATOM     23  C23 UNL     1      23.209  -8.889 -32.457  0.00  0.00    +0.000 A 
ATOM     24  C24 UNL     1      24.243  -9.187 -33.349  0.00  0.00    +0.000 A 
ENDBRANCH  16  19
ENDBRANCH   2   5
BRANCH   1  27
ATOM     25  N1  UNL     1      26.794  -8.863 -43.343  0.00  0.00    +0.000 N 
ATOM     26  C6  UNL     1      27.202  -8.913 -41.969  0.00  0.00    +0.000 C 
ATOM     27  N2  UNL     1      26.723  -8.055 -41.114  0.00  0.00    +0.000 NA
ATOM     28  H6  UNL     1      27.420  -9.303 -44.054  0.00  0.00    +0.000 HD
BRANCH  25  32
ATOM     29  C2  UNL     1      23.412  -6.648 -44.670  0.00  0.00    +0.000 A 
ATOM     30  C3  UNL     1      23.277  -7.674 -43.719  0.00  0.00    +0.000 A 
ATOM     31  C4  UNL     1      24.397  -8.388 -43.290  0.00  0.00    +0.000 A 
ATOM     32  C5  UNL     1      25.666  -8.104 -43.809  0.00  0.00    +0.000 A 
ATOM     33  C25 UNL     1      25.821  -7.053 -44.737  0.00  0.00    +0.000 A 
ATOM     34  C27 UNL     1      24.684  -6.344 -45.171  0.00  0.00    +0.000 A 
BRANCH  29  36
ATOM     35  C1  UNL     1      21.287  -6.432 -45.968  0.00  0.00    +0.000 C 
ATOM     36  O1  UNL     1      22.318  -5.907 -45.138  0.00  0.00    +0.000 OA
ENDBRANCH  29  36
BRANCH  33  37
ATOM     37  O3  UNL     1      27.111  -6.726 -45.185  0.00  0.00    +0.000 OA
ATOM     38  C26 UNL     1      27.666  -7.137 -46.430  0.00  0.00    +0.000 C 
ENDBRANCH  33  37
ENDBRANCH  25  32
BRANCH  26  39
ATOM     39  S1  UNL     1      28.478 -10.088 -41.495  0.00  0.00    +0.000 S 
ATOM     40  H7  UNL     1      28.602 -10.563 -42.814  0.00  0.00    +0.000 HD
ENDBRANCH  26  39
ENDBRANCH   1  27
TORSDOF 7
ENDMDL
MODEL 5
REMARK VINA RESULT:    -6.587      0.781      4.207
REMARK INTER + INTRA:          -9.391
REMARK INTER:                  -9.174
REMARK INTRA:                  -0.217
REMARK UNBOUND:                -0.300
REMARK  Name = resultss/4CJN/ligands/lig_437_t2.pdb
REMARK  9 active torsions:
REMARK  status: ('A' for Active; 'I' for Inactive)
REMARK    1  A    between atoms: C1_1  and  O1_2
REMARK    2  A    between atoms: O1_2  and  C2_3
REMARK    3  A    between atoms: C5_6  and  N1_7
REMARK    4  A    between atoms: C6_8  and  S1_9
REMARK    5  A    between atoms: N2_10  and  N3_11
REMARK    6  A    between atoms: C7_12  and  C8_14
REMARK    7  A    between atoms: C18_25  and  C19_26
REMARK    8  A    between atoms: C25_33  and  O3_34
REMARK    9  A    between atoms: O3_34  and  C26_35
REMARK                            x       y       z     vdW  Elec       q    Type
REMARK                         _______ _______ _______ _____ _____    ______ ____
ROOT
ATOM      1  N3  UNL     1      22.803  -7.918 -42.402  0.00  0.00    +0.000 N 
ATOM      2  C7  UNL     1      23.579  -7.258 -41.389  0.00  0.00    +0.000 C 
ATOM      3  O2  UNL     1      23.242  -6.109 -40.995  0.00  0.00    +0.000 OA
ATOM      4  H8  UNL     1      23.240  -8.696 -42.943  0.00  0.00    +0.000 HD
ENDROOT
BRANCH   2   5
ATOM      5  C8  UNL     1      24.775  -7.912 -40.819  0.00  0.00    +0.000 A 
ATOM      6  C9  UNL     1      25.824  -8.357 -41.654  0.00  0.00    +0.000 A 
ATOM      7  C10 UNL     1      26.921  -8.944 -41.038  0.00  0.00    +0.000 A 
ATOM      8  C11 UNL     1      26.998  -9.100 -39.672  0.00  0.00    +0.000 A 
ATOM      9  N4  UNL     1      28.186  -9.636 -39.303  0.00  0.00    +0.000 N 
ATOM     10  C12 UNL     1      28.850  -9.834 -40.463  0.00  0.00    +0.000 A 
ATOM     11  C13 UNL     1      30.132 -10.359 -40.619  0.00  0.00    +0.000 A 
ATOM     12  C14 UNL     1      30.648 -10.461 -41.925  0.00  0.00    +0.000 A 
ATOM     13  C15 UNL     1      29.881 -10.038 -43.035  0.00  0.00    +0.000 A 
ATOM     14  C16 UNL     1      28.592  -9.506 -42.851  0.00  0.00    +0.000 A 
ATOM     15  C17 UNL     1      28.107  -9.423 -41.548  0.00  0.00    +0.000 A 
ATOM     16  C18 UNL     1      25.945  -8.669 -38.853  0.00  0.00    +0.000 A 
ATOM     17  N5  UNL     1      24.872  -8.078 -39.461  0.00  0.00    +0.000 NA
ATOM     18  H10 UNL     1      28.541  -9.826 -38.340  0.00  0.00    +0.000 HD
BRANCH  16  19
ATOM     19  C19 UNL     1      25.953  -8.820 -37.384  0.00  0.00    +0.000 A 
ATOM     20  C20 UNL     1      24.935  -8.230 -36.616  0.00  0.00    +0.000 A 
ATOM     21  C21 UNL     1      24.917  -8.387 -35.226  0.00  0.00    +0.000 A 
ATOM     22  C22 UNL     1      25.904  -9.148 -34.595  0.00  0.00    +0.000 A 
ATOM     23  C23 UNL     1      26.906  -9.758 -35.352  0.00  0.00    +0.000 A 
ATOM     24  C24 UNL     1      26.930  -9.603 -36.741  0.00  0.00    +0.000 A 
ENDBRANCH  16  19
ENDBRANCH   2   5
BRANCH   1  27
ATOM     25  N1  UNL     1      20.284  -6.326 -44.588  0.00  0.00    +0.000 N 
ATOM     26  C6  UNL     1      21.531  -6.868 -44.128  0.00  0.00    +0.000 C 
ATOM     27  N2  UNL     1      21.630  -7.341 -42.919  0.00  0.00    +0.000 NA
ATOM     28  H6  UNL     1      20.309  -5.659 -45.392  0.00  0.00    +0.000 HD
BRANCH  25  32
ATOM     29  C2  UNL     1      16.604  -6.843 -42.518  0.00  0.00    +0.000 A 
ATOM     30  C3  UNL     1      17.630  -6.046 -41.981  0.00  0.00    +0.000 A 
ATOM     31  C4  UNL     1      18.829  -5.883 -42.674  0.00  0.00    +0.000 A 
ATOM     32  C5  UNL     1      19.035  -6.518 -43.905  0.00  0.00    +0.000 A 
ATOM     33  C25 UNL     1      18.000  -7.290 -44.473  0.00  0.00    +0.000 A 
ATOM     34  C27 UNL     1      16.796  -7.457 -43.761  0.00  0.00    +0.000 A 
BRANCH  29  36
ATOM     35  C1  UNL     1      15.061  -6.502 -40.581  0.00  0.00    +0.000 C 
ATOM     36  O1  UNL     1      15.383  -7.044 -41.857  0.00  0.00    +0.000 OA
ENDBRANCH  29  36
BRANCH  33  37
ATOM     37  O3  UNL     1      18.190  -7.852 -45.746  0.00  0.00    +0.000 OA
ATOM     38  C26 UNL     1      17.533  -7.415 -46.931  0.00  0.00    +0.000 C 
ENDBRANCH  33  37
ENDBRANCH  25  32
BRANCH  26  39
ATOM     39  S1  UNL     1      22.966  -6.751 -45.205  0.00  0.00    +0.000 S 
ATOM     40  H7  UNL     1      22.586  -7.900 -45.923  0.00  0.00    +0.000 HD
ENDBRANCH  26  39
ENDBRANCH   1  27
TORSDOF 7
ENDMDL
MODEL 6
REMARK VINA RESULT:    -6.488      3.528      9.770
REMARK INTER + INTRA:          -9.253
REMARK INTER:                  -8.725
REMARK INTRA:                  -0.528
REMARK UNBOUND:                -0.300
REMARK  Name = resultss/4CJN/ligands/lig_437_t2.pdb
REMARK  9 active torsions:
REMARK  status: ('A' for Active; 'I' for Inactive)
REMARK    1  A    between atoms: C1_1  and  O1_2
REMARK    2  A    between atoms: O1_2  and  C2_3
REMARK    3  A    between atoms: C5_6  and  N1_7
REMARK    4  A    between atoms: C6_8  and  S1_9
REMARK    5  A    between atoms: N2_10  and  N3_11
REMARK    6  A    between atoms: C7_12  and  C8_14
REMARK    7  A    between atoms: C18_25  and  C19_26
REMARK    8  A    between atoms: C25_33  and  O3_34
REMARK    9  A    between atoms: O3_34  and  C26_35
REMARK                            x       y       z     vdW  Elec       q    Type
REMARK                         _______ _______ _______ _____ _____    ______ ____
ROOT
ATOM      1  N3  UNL     1      26.839  -8.941 -41.113  0.00  0.00    +0.000 N 
ATOM      2  C7  UNL     1      25.493  -8.444 -41.048  0.00  0.00    +0.000 C 
ATOM      3  O2  UNL     1      24.893  -8.411 -39.939  0.00  0.00    +0.000 OA
ATOM      4  H8  UNL     1      27.213  -9.261 -42.033  0.00  0.00    +0.000 HD
ENDROOT
BRANCH   2   5
ATOM      5  C8  UNL     1      24.805  -7.985 -42.272  0.00  0.00    +0.000 A 
ATOM      6  C9  UNL     1      23.405  -7.805 -42.291  0.00  0.00    +0.000 A 
ATOM      7  C10 UNL     1      22.838  -7.352 -43.475  0.00  0.00    +0.000 A 
ATOM      8  C11 UNL     1      23.594  -7.090 -44.597  0.00  0.00    +0.000 A 
ATOM      9  N4  UNL     1      22.831  -6.599 -45.602  0.00  0.00    +0.000 N 
ATOM     10  C12 UNL     1      21.576  -6.575 -45.103  0.00  0.00    +0.000 A 
ATOM     11  C13 UNL     1      20.422  -6.137 -45.750  0.00  0.00    +0.000 A 
ATOM     12  C14 UNL     1      19.210  -6.177 -45.035  0.00  0.00    +0.000 A 
ATOM     13  C15 UNL     1      19.178  -6.644 -43.701  0.00  0.00    +0.000 A 
ATOM     14  C16 UNL     1      20.358  -7.075 -43.067  0.00  0.00    +0.000 A 
ATOM     15  C17 UNL     1      21.541  -7.029 -43.802  0.00  0.00    +0.000 A 
ATOM     16  C18 UNL     1      24.982  -7.286 -44.572  0.00  0.00    +0.000 A 
ATOM     17  N5  UNL     1      25.539  -7.719 -43.401  0.00  0.00    +0.000 NA
ATOM     18  H10 UNL     1      23.134  -6.272 -46.547  0.00  0.00    +0.000 HD
BRANCH  16  19
ATOM     19  C19 UNL     1      25.851  -7.042 -45.741  0.00  0.00    +0.000 A 
ATOM     20  C20 UNL     1      25.297  -7.040 -47.032  0.00  0.00    +0.000 A 
ATOM     21  C21 UNL     1      26.104  -6.785 -48.147  0.00  0.00    +0.000 A 
ATOM     22  C22 UNL     1      27.463  -6.515 -47.979  0.00  0.00    +0.000 A 
ATOM     23  C23 UNL     1      28.019  -6.492 -46.697  0.00  0.00    +0.000 A 
ATOM     24  C24 UNL     1      27.217  -6.747 -45.581  0.00  0.00    +0.000 A 
ENDBRANCH  16  19
ENDBRANCH   2   5
BRANCH   1  27
ATOM     25  N1  UNL     1      29.290 -10.369 -38.744  0.00  0.00    +0.000 N 
ATOM     26  C6  UNL     1      28.625 -10.042 -39.973  0.00  0.00    +0.000 C 
ATOM     27  N2  UNL     1      27.534  -9.331 -39.955  0.00  0.00    +0.000 NA
ATOM     28  H6  UNL     1      29.930 -11.194 -38.741  0.00  0.00    +0.000 HD
BRANCH  25  32
ATOM     29  C2  UNL     1      28.390  -8.532 -35.014  0.00  0.00    +0.000 A 
ATOM     30  C3  UNL     1      27.685  -9.667 -35.449  0.00  0.00    +0.000 A 
ATOM     31  C4  UNL     1      27.995 -10.261 -36.674  0.00  0.00    +0.000 A 
ATOM     32  C5  UNL     1      29.001  -9.729 -37.490  0.00  0.00    +0.000 A 
ATOM     33  C25 UNL     1      29.741  -8.613 -37.049  0.00  0.00    +0.000 A 
ATOM     34  C27 UNL     1      29.414  -8.015 -35.816  0.00  0.00    +0.000 A 
BRANCH  29  36
ATOM     35  C1  UNL     1      26.869  -7.985 -33.107  0.00  0.00    +0.000 C 
ATOM     36  O1  UNL     1      28.112  -7.895 -33.796  0.00  0.00    +0.000 OA
ENDBRANCH  29  36
BRANCH  33  37
ATOM     37  O3  UNL     1      30.801  -8.142 -37.840  0.00  0.00    +0.000 OA
ATOM     38  C26 UNL     1      30.722  -7.027 -38.721  0.00  0.00    +0.000 C 
ENDBRANCH  33  37
ENDBRANCH  25  32
BRANCH  26  39
ATOM     39  S1  UNL     1      29.253 -10.749 -41.502  0.00  0.00    +0.000 S 
ATOM     40  H7  UNL     1      30.565 -10.808 -40.997  0.00  0.00    +0.000 HD
ENDBRANCH  26  39
ENDBRANCH   1  27
TORSDOF 7
ENDMDL
MODEL 7
REMARK VINA RESULT:    -6.448      3.469      5.170
REMARK INTER + INTRA:          -9.198
REMARK INTER:                  -8.530
REMARK INTRA:                  -0.668
REMARK UNBOUND:                -0.300
REMARK  Name = resultss/4CJN/ligands/lig_437_t2.pdb
REMARK  9 active torsions:
REMARK  status: ('A' for Active; 'I' for Inactive)
REMARK    1  A    between atoms: C1_1  and  O1_2
REMARK    2  A    between atoms: O1_2  and  C2_3
REMARK    3  A    between atoms: C5_6  and  N1_7
REMARK    4  A    between atoms: C6_8  and  S1_9
REMARK    5  A    between atoms: N2_10  and  N3_11
REMARK    6  A    between atoms: C7_12  and  C8_14
REMARK    7  A    between atoms: C18_25  and  C19_26
REMARK    8  A    between atoms: C25_33  and  O3_34
REMARK    9  A    between atoms: O3_34  and  C26_35
REMARK                            x       y       z     vdW  Elec       q    Type
REMARK                         _______ _______ _______ _____ _____    ______ ____
ROOT
ATOM      1  N3  UNL     1      23.967  -7.694 -40.924  0.00  0.00    +0.000 N 
ATOM      2  C7  UNL     1      25.201  -7.229 -40.355  0.00  0.00    +0.000 C 
ATOM      3  O2  UNL     1      25.983  -6.525 -41.050  0.00  0.00    +0.000 OA
ATOM      4  H8  UNL     1      23.487  -8.510 -40.484  0.00  0.00    +0.000 HD
ENDROOT
BRANCH   2   5
ATOM      5  C8  UNL     1      25.564  -7.581 -38.967  0.00  0.00    +0.000 A 
ATOM      6  C9  UNL     1      24.583  -7.630 -37.952  0.00  0.00    +0.000 A 
ATOM      7  C10 UNL     1      25.003  -7.988 -36.678  0.00  0.00    +0.000 A 
ATOM      8  C11 UNL     1      26.319  -8.280 -36.395  0.00  0.00    +0.000 A 
ATOM      9  N4  UNL     1      26.473  -8.664 -35.105  0.00  0.00    +0.000 N 
ATOM     10  C12 UNL     1      25.233  -8.589 -34.573  0.00  0.00    +0.000 A 
ATOM     11  C13 UNL     1      24.859  -8.896 -33.266  0.00  0.00    +0.000 A 
ATOM     12  C14 UNL     1      23.500  -8.769 -32.922  0.00  0.00    +0.000 A 
ATOM     13  C15 UNL     1      22.553  -8.347 -33.883  0.00  0.00    +0.000 A 
ATOM     14  C16 UNL     1      22.954  -8.049 -35.198  0.00  0.00    +0.000 A 
ATOM     15  C17 UNL     1      24.306  -8.178 -35.506  0.00  0.00    +0.000 A 
ATOM     16  C18 UNL     1      27.288  -8.213 -37.406  0.00  0.00    +0.000 A 
ATOM     17  N5  UNL     1      26.870  -7.874 -38.663  0.00  0.00    +0.000 NA
ATOM     18  H10 UNL     1      27.342  -8.985 -34.623  0.00  0.00    +0.000 HD
BRANCH  16  19
ATOM     19  C19 UNL     1      28.719  -8.496 -37.170  0.00  0.00    +0.000 A 
ATOM     20  C20 UNL     1      29.259  -9.732 -37.563  0.00  0.00    +0.000 A 
ATOM     21  C21 UNL     1      30.618 -10.003 -37.368  0.00  0.00    +0.000 A 
ATOM     22  C22 UNL     1      31.449  -9.038 -36.797  0.00  0.00    +0.000 A 
ATOM     23  C23 UNL     1      30.926  -7.797 -36.424  0.00  0.00    +0.000 A 
ATOM     24  C24 UNL     1      29.569  -7.522 -36.615  0.00  0.00    +0.000 A 
ENDBRANCH  16  19
ENDBRANCH   2   5
BRANCH   1  27
ATOM     25  N1  UNL     1      22.273  -6.163 -43.829  0.00  0.00    +0.000 N 
ATOM     26  C6  UNL     1      22.588  -6.511 -42.473  0.00  0.00    +0.000 C 
ATOM     27  N2  UNL     1      23.572  -7.326 -42.222  0.00  0.00    +0.000 NA
ATOM     28  H6  UNL     1      21.310  -5.810 -44.030  0.00  0.00    +0.000 HD
BRANCH  25  32
ATOM     29  C2  UNL     1      24.915  -6.922 -47.075  0.00  0.00    +0.000 A 
ATOM     30  C3  UNL     1      25.381  -6.338 -45.885  0.00  0.00    +0.000 A 
ATOM     31  C4  UNL     1      24.503  -6.099 -44.828  0.00  0.00    +0.000 A 
ATOM     32  C5  UNL     1      23.146  -6.425 -44.940  0.00  0.00    +0.000 A 
ATOM     33  C25 UNL     1      22.672  -7.046 -46.114  0.00  0.00    +0.000 A 
ATOM     34  C27 UNL     1      23.564  -7.274 -47.180  0.00  0.00    +0.000 A 
BRANCH  29  36
ATOM     35  C1  UNL     1      26.655  -6.225 -48.729  0.00  0.00    +0.000 C 
ATOM     36  O1  UNL     1      25.756  -7.176 -48.169  0.00  0.00    +0.000 OA
ENDBRANCH  29  36
BRANCH  33  37
ATOM     37  O3  UNL     1      21.326  -7.442 -46.180  0.00  0.00    +0.000 OA
ATOM     38  C26 UNL     1      20.377  -6.941 -47.116  0.00  0.00    +0.000 C 
ENDBRANCH  33  37
ENDBRANCH  25  32
BRANCH  26  39
ATOM     39  S1  UNL     1      21.516  -5.910 -41.161  0.00  0.00    +0.000 S 
ATOM     40  H7  UNL     1      22.049  -4.611 -41.250  0.00  0.00    +0.000 HD
ENDBRANCH  26  39
ENDBRANCH   1  27
TORSDOF 7
ENDMDL
MODEL 8
REMARK VINA RESULT:    -6.400      6.575     12.016
REMARK INTER + INTRA:          -9.132
REMARK INTER:                  -8.287
REMARK INTRA:                  -0.845
REMARK UNBOUND:                -0.300
REMARK  Name = resultss/4CJN/ligands/lig_437_t2.pdb
REMARK  9 active torsions:
REMARK  status: ('A' for Active; 'I' for Inactive)
REMARK    1  A    between atoms: C1_1  and  O1_2
REMARK    2  A    between atoms: O1_2  and  C2_3
REMARK    3  A    between atoms: C5_6  and  N1_7
REMARK    4  A    between atoms: C6_8  and  S1_9
REMARK    5  A    between atoms: N2_10  and  N3_11
REMARK    6  A    between atoms: C7_12  and  C8_14
REMARK    7  A    between atoms: C18_25  and  C19_26
REMARK    8  A    between atoms: C25_33  and  O3_34
REMARK    9  A    between atoms: O3_34  and  C26_35
REMARK                            x       y       z     vdW  Elec       q    Type
REMARK                         _______ _______ _______ _____ _____    ______ ____
ROOT
ATOM      1  N3  UNL     1      29.713  -9.657 -36.751  0.00  0.00    +0.000 N 
ATOM      2  C7  UNL     1      30.488  -8.934 -37.720  0.00  0.00    +0.000 C 
ATOM      3  O2  UNL     1      31.238  -7.993 -37.344  0.00  0.00    +0.000 OA
ATOM      4  H8  UNL     1      28.882 -10.198 -37.074  0.00  0.00    +0.000 HD
ENDROOT
BRANCH   2   5
ATOM      5  C8  UNL     1      30.401  -9.278 -39.155  0.00  0.00    +0.000 A 
ATOM      6  C9  UNL     1      31.554  -9.650 -39.880  0.00  0.00    +0.000 A 
ATOM      7  C10 UNL     1      31.384  -9.977 -41.220  0.00  0.00    +0.000 A 
ATOM      8  C11 UNL     1      30.150  -9.939 -41.832  0.00  0.00    +0.000 A 
ATOM      9  N4  UNL     1      30.226 -10.361 -43.117  0.00  0.00    +0.000 N 
ATOM     10  C12 UNL     1      31.532 -10.646 -43.311  0.00  0.00    +0.000 A 
ATOM     11  C13 UNL     1      32.123 -11.131 -44.477  0.00  0.00    +0.000 A 
ATOM     12  C14 UNL     1      33.508 -11.382 -44.458  0.00  0.00    +0.000 A 
ATOM     13  C15 UNL     1      34.264 -11.152 -43.286  0.00  0.00    +0.000 A 
ATOM     14  C16 UNL     1      33.644 -10.668 -42.119  0.00  0.00    +0.000 A 
ATOM     15  C17 UNL     1      32.273 -10.422 -42.171  0.00  0.00    +0.000 A 
ATOM     16  C18 UNL     1      29.015  -9.554 -41.106  0.00  0.00    +0.000 A 
ATOM     17  N5  UNL     1      29.183  -9.246 -39.785  0.00  0.00    +0.000 NA
ATOM     18  H10 UNL     1      29.451 -10.481 -43.807  0.00  0.00    +0.000 HD
BRANCH  16  19
ATOM     19  C19 UNL     1      27.666  -9.475 -41.703  0.00  0.00    +0.000 A 
ATOM     20  C20 UNL     1      26.590 -10.132 -41.084  0.00  0.00    +0.000 A 
ATOM     21  C21 UNL     1      25.303 -10.045 -41.625  0.00  0.00    +0.000 A 
ATOM     22  C22 UNL     1      25.078  -9.288 -42.777  0.00  0.00    +0.000 A 
ATOM     23  C23 UNL     1      26.137  -8.612 -43.387  0.00  0.00    +0.000 A 
ATOM     24  C24 UNL     1      27.426  -8.697 -42.851  0.00  0.00    +0.000 A 
ENDBRANCH  16  19
ENDBRANCH   2   5
BRANCH   1  27
ATOM     25  N1  UNL     1      29.053  -9.286 -33.134  0.00  0.00    +0.000 N 
ATOM     26  C6  UNL     1      28.847  -9.556 -34.528  0.00  0.00    +0.000 C 
ATOM     27  N2  UNL     1      29.821  -9.386 -35.376  0.00  0.00    +0.000 NA
ATOM     28  H6  UNL     1      28.212  -9.093 -32.545  0.00  0.00    +0.000 HD
BRANCH  25  32
ATOM     29  C2  UNL     1      32.907  -8.828 -31.392  0.00  0.00    +0.000 A 
ATOM     30  C3  UNL     1      32.369 -10.104 -31.632  0.00  0.00    +0.000 A 
ATOM     31  C4  UNL     1      31.105 -10.238 -32.208  0.00  0.00    +0.000 A 
ATOM     32  C5  UNL     1      30.350  -9.107 -32.543  0.00  0.00    +0.000 A 
ATOM     33  C25 UNL     1      30.893  -7.821 -32.342  0.00  0.00    +0.000 A 
ATOM     34  C27 UNL     1      32.166  -7.696 -31.751  0.00  0.00    +0.000 A 
BRANCH  29  36
ATOM     35  C1  UNL     1      34.380  -8.124 -29.499  0.00  0.00    +0.000 C 
ATOM     36  O1  UNL     1      34.169  -8.641 -30.808  0.00  0.00    +0.000 OA
ENDBRANCH  29  36
BRANCH  33  37
ATOM     37  O3  UNL     1      30.159  -6.699 -32.759  0.00  0.00    +0.000 OA
ATOM     38  C26 UNL     1      29.248  -5.974 -31.939  0.00  0.00    +0.000 C 
ENDBRANCH  33  37
ENDBRANCH  25  32
BRANCH  26  39
ATOM     39  S1  UNL     1      27.194  -9.995 -35.082  0.00  0.00    +0.000 S 
ATOM     40  H7  UNL     1      27.167  -8.936 -36.008  0.00  0.00    +0.000 HD
ENDBRANCH  26  39
ENDBRANCH   1  27
TORSDOF 7
ENDMDL
MODEL 9
REMARK VINA RESULT:    -6.130      2.980      4.353
REMARK INTER + INTRA:          -8.759
REMARK INTER:                  -8.662
REMARK INTRA:                  -0.097
REMARK UNBOUND:                -0.300
REMARK  Name = resultss/4CJN/ligands/lig_437_t2.pdb
REMARK  9 active torsions:
REMARK  status: ('A' for Active; 'I' for Inactive)
REMARK    1  A    between atoms: C1_1  and  O1_2
REMARK    2  A    between atoms: O1_2  and  C2_3
REMARK    3  A    between atoms: C5_6  and  N1_7
REMARK    4  A    between atoms: C6_8  and  S1_9
REMARK    5  A    between atoms: N2_10  and  N3_11
REMARK    6  A    between atoms: C7_12  and  C8_14
REMARK    7  A    between atoms: C18_25  and  C19_26
REMARK    8  A    between atoms: C25_33  and  O3_34
REMARK    9  A    between atoms: O3_34  and  C26_35
REMARK                            x       y       z     vdW  Elec       q    Type
REMARK                         _______ _______ _______ _____ _____    ______ ____
ROOT
ATOM      1  N3  UNL     1      25.403  -7.821 -41.446  0.00  0.00    +0.000 N 
ATOM      2  C7  UNL     1      25.026  -7.025 -40.310  0.00  0.00    +0.000 C 
ATOM      3  O2  UNL     1      24.368  -5.964 -40.483  0.00  0.00    +0.000 OA
ATOM      4  H8  UNL     1      26.190  -8.498 -41.346  0.00  0.00    +0.000 HD
ENDROOT
BRANCH   2   5
ATOM      5  C8  UNL     1      25.418  -7.437 -38.946  0.00  0.00    +0.000 A 
ATOM      6  C9  UNL     1      24.459  -7.516 -37.912  0.00  0.00    +0.000 A 
ATOM      7  C10 UNL     1      24.905  -7.929 -36.663  0.00  0.00    +0.000 A 
ATOM      8  C11 UNL     1      26.224  -8.247 -36.423  0.00  0.00    +0.000 A 
ATOM      9  N4  UNL     1      26.403  -8.684 -35.154  0.00  0.00    +0.000 N 
ATOM     10  C12 UNL     1      25.177  -8.617 -34.590  0.00  0.00    +0.000 A 
ATOM     11  C13 UNL     1      24.830  -8.972 -33.288  0.00  0.00    +0.000 A 
ATOM     12  C14 UNL     1      23.481  -8.844 -32.907  0.00  0.00    +0.000 A 
ATOM     13  C15 UNL     1      22.516  -8.374 -33.827  0.00  0.00    +0.000 A 
ATOM     14  C16 UNL     1      22.890  -8.027 -35.139  0.00  0.00    +0.000 A 
ATOM     15  C17 UNL     1      24.233  -8.159 -35.484  0.00  0.00    +0.000 A 
ATOM     16  C18 UNL     1      27.170  -8.150 -37.454  0.00  0.00    +0.000 A 
ATOM     17  N5  UNL     1      26.726  -7.756 -38.685  0.00  0.00    +0.000 NA
ATOM     18  H10 UNL     1      27.278  -9.033 -34.705  0.00  0.00    +0.000 HD
BRANCH  16  19
ATOM     19  C19 UNL     1      28.602  -8.458 -37.263  0.00  0.00    +0.000 A 
ATOM     20  C20 UNL     1      29.042  -9.791 -37.318  0.00  0.00    +0.000 A 
ATOM     21  C21 UNL     1      30.399 -10.094 -37.164  0.00  0.00    +0.000 A 
ATOM     22  C22 UNL     1      31.327  -9.069 -36.972  0.00  0.00    +0.000 A 
ATOM     23  C23 UNL     1      30.902  -7.738 -36.939  0.00  0.00    +0.000 A 
ATOM     24  C24 UNL     1      29.548  -7.430 -37.091  0.00  0.00    +0.000 A 
ENDBRANCH  16  19
ENDBRANCH   2   5
BRANCH   1  27
ATOM     25  N1  UNL     1      25.292  -7.128 -45.074  0.00  0.00    +0.000 N 
ATOM     26  C6  UNL     1      25.798  -7.454 -43.772  0.00  0.00    +0.000 C 
ATOM     27  N2  UNL     1      24.995  -7.481 -42.747  0.00  0.00    +0.000 NA
ATOM     28  H6  UNL     1      25.970  -6.778 -45.787  0.00  0.00    +0.000 HD
BRANCH  25  32
ATOM     29  C2  UNL     1      21.134  -7.013 -45.966  0.00  0.00    +0.000 A 
ATOM     30  C3  UNL     1      21.607  -6.693 -44.682  0.00  0.00    +0.000 A 
ATOM     31  C4  UNL     1      22.974  -6.732 -44.406  0.00  0.00    +0.000 A 
ATOM     32  C5  UNL     1      23.892  -7.100 -45.397  0.00  0.00    +0.000 A 
ATOM     33  C25 UNL     1      23.434  -7.387 -46.700  0.00  0.00    +0.000 A 
ATOM     34  C27 UNL     1      22.051  -7.355 -46.967  0.00  0.00    +0.000 A 
BRANCH  29  36
ATOM     35  C1  UNL     1      18.716  -6.940 -45.336  0.00  0.00    +0.000 C 
ATOM     36  O1  UNL     1      19.769  -6.997 -46.292  0.00  0.00    +0.000 OA
ENDBRANCH  29  36
BRANCH  33  37
ATOM     37  O3  UNL     1      24.373  -7.674 -47.704  0.00  0.00    +0.000 OA
ATOM     38  C26 UNL     1      25.177  -6.701 -48.364  0.00  0.00    +0.000 C 
ENDBRANCH  33  37
ENDBRANCH  25  32
BRANCH  26  39
ATOM     39  S1  UNL     1      27.571  -7.684 -43.574  0.00  0.00    +0.000 S 
ATOM     40  H7  UNL     1      27.637  -6.705 -42.565  0.00  0.00    +0.000 HD
ENDBRANCH  26  39
ENDBRANCH   1  27
TORSDOF 7
ENDMDL
