MODEL 1
REMARK VINA RESULT:    -6.394      0.000      0.000
REMARK INTER + INTRA:          -8.860
REMARK INTER:                  -9.010
REMARK INTRA:                   0.150
REMARK UNBOUND:                 0.150
REMARK  Name = resultss/4CJN/ligands/lig_367_t0.pdb
REMARK  13 active torsions:
REMARK  status: ('A' for Active; 'I' for Inactive)
REMARK    1  A    between atoms: C1_1  and  O1_2
REMARK    2  A    between atoms: O1_2  and  C2_3
REMARK    3  A    between atoms: C4_5  and  C5_6
REMARK    4  A    between atoms: C5_6  and  C6_7
REMARK    5  A    between atoms: C5_6  and  C16_20
REMARK    6  A    between atoms: C7_8  and  O2_9
REMARK    7  A    between atoms: C10_12  and  C11_13
REMARK    8  A    between atoms: C17_21  and  O5_22
REMARK    9  A    between atoms: C20_25  and  C21_26
REMARK   10  A    between atoms: C27_34  and  O8_35
REMARK   11  A    between atoms: O8_35  and  C28_36
REMARK   12  A    between atoms: C29_37  and  O9_38
REMARK   13  A    between atoms: O9_38  and  C30_39
REMARK                            x       y       z     vdW  Elec       q    Type
REMARK                         _______ _______ _______ _____ _____    ______ ____
ROOT
ATOM      1  C5  UNL     1      28.525  -8.146 -40.474  0.00  0.00    +0.000 C 
ENDROOT
BRANCH   1   2
ATOM      2  C6  UNL     1      27.998  -8.637 -39.115  0.00  0.00    +0.000 A 
ATOM      3  C7  UNL     1      27.764  -7.707 -38.064  0.00  0.00    +0.000 A 
ATOM      4  C8  UNL     1      27.253  -8.163 -36.837  0.00  0.00    +0.000 A 
ATOM      5  C9  UNL     1      26.980  -7.281 -35.774  0.00  0.00    +0.000 A 
ATOM      6  C10 UNL     1      26.456  -7.768 -34.565  0.00  0.00    +0.000 A 
ATOM      7  C11 UNL     1      26.206  -6.830 -33.421  0.00  0.00    +0.000 C 
ATOM      8  C12 UNL     1      26.237  -9.144 -34.410  0.00  0.00    +0.000 A 
ATOM      9  C13 UNL     1      26.508 -10.024 -35.461  0.00  0.00    +0.000 A 
ATOM     10  C14 UNL     1      27.014  -9.540 -36.671  0.00  0.00    +0.000 A 
ATOM     11  O3  UNL     1      27.276 -10.388 -37.653  0.00  0.00    +0.000 OA
ATOM     12  C15 UNL     1      27.753 -10.009 -38.833  0.00  0.00    +0.000 A 
ATOM     13  O4  UNL     1      27.998 -10.903 -39.684  0.00  0.00    +0.000 OA
BRANCH   3  14
ATOM     14  O2  UNL     1      28.034  -6.341 -38.205  0.00  0.00    +0.000 OA
ATOM     15  H6  UNL     1      27.529  -5.606 -37.732  0.00  0.00    +0.000 HD
ENDBRANCH   3  14
ENDBRANCH   1   2
BRANCH   1  16
ATOM     16  C16 UNL     1      29.808  -8.869 -40.907  0.00  0.00    +0.000 A 
ATOM     17  C17 UNL     1      29.801  -9.904 -41.874  0.00  0.00    +0.000 A 
ATOM     18  C18 UNL     1      31.022 -10.525 -42.233  0.00  0.00    +0.000 A 
ATOM     19  C19 UNL     1      31.102 -11.609 -43.137  0.00  0.00    +0.000 A 
ATOM     20  C20 UNL     1      32.344 -12.170 -43.474  0.00  0.00    +0.000 A 
ATOM     21  C21 UNL     1      32.421 -13.346 -44.404  0.00  0.00    +0.000 C 
ATOM     22  C22 UNL     1      33.512 -11.672 -42.880  0.00  0.00    +0.000 A 
ATOM     23  C23 UNL     1      33.446 -10.610 -41.981  0.00  0.00    +0.000 A 
ATOM     24  C24 UNL     1      32.214 -10.036 -41.654  0.00  0.00    +0.000 A 
ATOM     25  O6  UNL     1      32.183  -9.028 -40.793  0.00  0.00    +0.000 OA
ATOM     26  C25 UNL     1      31.059  -8.437 -40.411  0.00  0.00    +0.000 A 
ATOM     27  O7  UNL     1      31.132  -7.474 -39.600  0.00  0.00    +0.000 OA
BRANCH  17  28
ATOM     28  O5  UNL     1      28.586 -10.258 -42.472  0.00  0.00    +0.000 OA
ATOM     29  H13 UNL     1      28.240  -9.884 -43.340  0.00  0.00    +0.000 HD
ENDBRANCH  17  28
ENDBRANCH   1  16
BRANCH   1  32
ATOM     30  C2  UNL     1      25.252  -8.527 -42.508  0.00  0.00    +0.000 A 
ATOM     31  C3  UNL     1      26.197  -8.631 -41.469  0.00  0.00    +0.000 A 
ATOM     32  C4  UNL     1      27.475  -8.053 -41.582  0.00  0.00    +0.000 A 
ATOM     33  C26 UNL     1      27.791  -7.348 -42.751  0.00  0.00    +0.000 A 
ATOM     34  C27 UNL     1      26.859  -7.218 -43.795  0.00  0.00    +0.000 A 
ATOM     35  C29 UNL     1      25.591  -7.811 -43.684  0.00  0.00    +0.000 A 
BRANCH  30  37
ATOM     36  C1  UNL     1      22.764  -8.406 -42.185  0.00  0.00    +0.000 C 
ATOM     37  O1  UNL     1      23.984  -9.117 -42.388  0.00  0.00    +0.000 OA
ENDBRANCH  30  37
BRANCH  34  38
ATOM     38  O8  UNL     1      27.156  -6.507 -44.969  0.00  0.00    +0.000 OA
ATOM     39  C28 UNL     1      27.972  -7.000 -46.028  0.00  0.00    +0.000 C 
ENDBRANCH  34  38
BRANCH  35  40
ATOM     40  O9  UNL     1      24.720  -7.645 -44.778  0.00  0.00    +0.000 OA
ATOM     41  C30 UNL     1      23.881  -6.521 -45.036  0.00  0.00    +0.000 C 
ENDBRANCH  35  40
ENDBRANCH   1  32
TORSDOF 8
ENDMDL
MODEL 2
REMARK VINA RESULT:    -6.311      0.300      2.034
REMARK INTER + INTRA:          -8.744
REMARK INTER:                  -8.939
REMARK INTRA:                   0.195
REMARK UNBOUND:                 0.150
REMARK  Name = resultss/4CJN/ligands/lig_367_t0.pdb
REMARK  13 active torsions:
REMARK  status: ('A' for Active; 'I' for Inactive)
REMARK    1  A    between atoms: C1_1  and  O1_2
REMARK    2  A    between atoms: O1_2  and  C2_3
REMARK    3  A    between atoms: C4_5  and  C5_6
REMARK    4  A    between atoms: C5_6  and  C6_7
REMARK    5  A    between atoms: C5_6  and  C16_20
REMARK    6  A    between atoms: C7_8  and  O2_9
REMARK    7  A    between atoms: C10_12  and  C11_13
REMARK    8  A    between atoms: C17_21  and  O5_22
REMARK    9  A    between atoms: C20_25  and  C21_26
REMARK   10  A    between atoms: C27_34  and  O8_35
REMARK   11  A    between atoms: O8_35  and  C28_36
REMARK   12  A    between atoms: C29_37  and  O9_38
REMARK   13  A    between atoms: O9_38  and  C30_39
REMARK                            x       y       z     vdW  Elec       q    Type
REMARK                         _______ _______ _______ _____ _____    ______ ____
ROOT
ATOM      1  C5  UNL     1      28.783  -8.141 -40.653  0.00  0.00    +0.000 C 
ENDROOT
BRANCH   1   2
ATOM      2  C6  UNL     1      28.195  -8.626 -39.317  0.00  0.00    +0.000 A 
ATOM      3  C7  UNL     1      27.985  -7.705 -38.255  0.00  0.00    +0.000 A 
ATOM      4  C8  UNL     1      27.418  -8.154 -37.050  0.00  0.00    +0.000 A 
ATOM      5  C9  UNL     1      27.167  -7.278 -35.976  0.00  0.00    +0.000 A 
ATOM      6  C10 UNL     1      26.586  -7.758 -34.791  0.00  0.00    +0.000 A 
ATOM      7  C11 UNL     1      26.358  -6.828 -33.635  0.00  0.00    +0.000 C 
ATOM      8  C12 UNL     1      26.287  -9.122 -34.669  0.00  0.00    +0.000 A 
ATOM      9  C13 UNL     1      26.536  -9.996 -35.730  0.00  0.00    +0.000 A 
ATOM     10  C14 UNL     1      27.099  -9.519 -36.918  0.00  0.00    +0.000 A 
ATOM     11  O3  UNL     1      27.339 -10.361 -37.909  0.00  0.00    +0.000 OA
ATOM     12  C15 UNL     1      27.867  -9.988 -39.069  0.00  0.00    +0.000 A 
ATOM     13  O4  UNL     1      28.084 -10.878 -39.931  0.00  0.00    +0.000 OA
BRANCH   3  14
ATOM     14  O2  UNL     1      28.334  -6.353 -38.362  0.00  0.00    +0.000 OA
ATOM     15  H6  UNL     1      28.925  -5.861 -37.707  0.00  0.00    +0.000 HD
ENDBRANCH   3  14
ENDBRANCH   1   2
BRANCH   1  16
ATOM     16  C16 UNL     1      30.035  -8.926 -41.069  0.00  0.00    +0.000 A 
ATOM     17  C17 UNL     1      30.003  -9.917 -42.080  0.00  0.00    +0.000 A 
ATOM     18  C18 UNL     1      31.196 -10.600 -42.420  0.00  0.00    +0.000 A 
ATOM     19  C19 UNL     1      31.244 -11.648 -43.366  0.00  0.00    +0.000 A 
ATOM     20  C20 UNL     1      32.462 -12.273 -43.680  0.00  0.00    +0.000 A 
ATOM     21  C21 UNL     1      32.503 -13.412 -44.658  0.00  0.00    +0.000 C 
ATOM     22  C22 UNL     1      33.634 -11.877 -43.022  0.00  0.00    +0.000 A 
ATOM     23  C23 UNL     1      33.598 -10.851 -42.079  0.00  0.00    +0.000 A 
ATOM     24  C24 UNL     1      32.392 -10.213 -41.774  0.00  0.00    +0.000 A 
ATOM     25  O6  UNL     1      32.388  -9.242 -40.871  0.00  0.00    +0.000 OA
ATOM     26  C25 UNL     1      31.290  -8.596 -40.506  0.00  0.00    +0.000 A 
ATOM     27  O7  UNL     1      31.389  -7.675 -39.651  0.00  0.00    +0.000 OA
BRANCH  17  28
ATOM     28  O5  UNL     1      28.794 -10.167 -42.739  0.00  0.00    +0.000 OA
ATOM     29  H13 UNL     1      28.616 -10.957 -43.338  0.00  0.00    +0.000 HD
ENDBRANCH  17  28
ENDBRANCH   1  16
BRANCH   1  32
ATOM     30  C2  UNL     1      27.112  -7.137 -43.999  0.00  0.00    +0.000 A 
ATOM     31  C3  UNL     1      28.068  -7.277 -42.974  0.00  0.00    +0.000 A 
ATOM     32  C4  UNL     1      27.769  -7.969 -41.785  0.00  0.00    +0.000 A 
ATOM     33  C26 UNL     1      26.497  -8.539 -41.643  0.00  0.00    +0.000 A 
ATOM     34  C27 UNL     1      25.533  -8.424 -42.658  0.00  0.00    +0.000 A 
ATOM     35  C29 UNL     1      25.830  -7.719 -43.834  0.00  0.00    +0.000 A 
BRANCH  30  37
ATOM     36  C1  UNL     1      27.859  -7.030 -46.394  0.00  0.00    +0.000 C 
ATOM     37  O1  UNL     1      27.418  -6.435 -45.175  0.00  0.00    +0.000 OA
ENDBRANCH  30  37
BRANCH  34  38
ATOM     38  O8  UNL     1      24.256  -8.997 -42.534  0.00  0.00    +0.000 OA
ATOM     39  C28 UNL     1      23.137  -8.356 -41.930  0.00  0.00    +0.000 C 
ENDBRANCH  34  38
BRANCH  35  40
ATOM     40  O9  UNL     1      24.805  -7.640 -44.798  0.00  0.00    +0.000 OA
ATOM     41  C30 UNL     1      23.980  -6.509 -45.072  0.00  0.00    +0.000 C 
ENDBRANCH  35  40
ENDBRANCH   1  32
TORSDOF 8
ENDMDL
MODEL 3
REMARK VINA RESULT:    -6.194      2.395      6.672
REMARK INTER + INTRA:          -8.579
REMARK INTER:                  -9.289
REMARK INTRA:                   0.710
REMARK UNBOUND:                 0.150
REMARK  Name = resultss/4CJN/ligands/lig_367_t0.pdb
REMARK  13 active torsions:
REMARK  status: ('A' for Active; 'I' for Inactive)
REMARK    1  A    between atoms: C1_1  and  O1_2
REMARK    2  A    between atoms: O1_2  and  C2_3
REMARK    3  A    between atoms: C4_5  and  C5_6
REMARK    4  A    between atoms: C5_6  and  C6_7
REMARK    5  A    between atoms: C5_6  and  C16_20
REMARK    6  A    between atoms: C7_8  and  O2_9
REMARK    7  A    between atoms: C10_12  and  C11_13
REMARK    8  A    between atoms: C17_21  and  O5_22
REMARK    9  A    between atoms: C20_25  and  C21_26
REMARK   10  A    between atoms: C27_34  and  O8_35
REMARK   11  A    between atoms: O8_35  and  C28_36
REMARK   12  A    between atoms: C29_37  and  O9_38
REMARK   13  A    between atoms: O9_38  and  C30_39
REMARK                            x       y       z     vdW  Elec       q    Type
REMARK                         _______ _______ _______ _____ _____    ______ ____
ROOT
ATOM      1  C5  UNL     1      27.331  -9.802 -38.845  0.00  0.00    +0.000 C 
ENDROOT
BRANCH   1   2
ATOM      2  C6  UNL     1      26.268  -8.750 -39.208  0.00  0.00    +0.000 A 
ATOM      3  C7  UNL     1      25.387  -8.977 -40.301  0.00  0.00    +0.000 A 
ATOM      4  C8  UNL     1      24.400  -8.024 -40.604  0.00  0.00    +0.000 A 
ATOM      5  C9  UNL     1      23.487  -8.212 -41.660  0.00  0.00    +0.000 A 
ATOM      6  C10 UNL     1      22.503  -7.246 -41.927  0.00  0.00    +0.000 A 
ATOM      7  C11 UNL     1      21.560  -7.430 -43.078  0.00  0.00    +0.000 C 
ATOM      8  C12 UNL     1      22.455  -6.075 -41.156  0.00  0.00    +0.000 A 
ATOM      9  C13 UNL     1      23.360  -5.883 -40.109  0.00  0.00    +0.000 A 
ATOM     10  C14 UNL     1      24.330  -6.851 -39.830  0.00  0.00    +0.000 A 
ATOM     11  O3  UNL     1      25.186  -6.649 -38.842  0.00  0.00    +0.000 OA
ATOM     12  C15 UNL     1      26.133  -7.518 -38.511  0.00  0.00    +0.000 A 
ATOM     13  O4  UNL     1      26.915  -7.210 -37.575  0.00  0.00    +0.000 OA
BRANCH   3  14
ATOM     14  O2  UNL     1      25.472 -10.123 -41.101  0.00  0.00    +0.000 OA
ATOM     15  H6  UNL     1      26.333 -10.502 -41.467  0.00  0.00    +0.000 HD
ENDBRANCH   3  14
ENDBRANCH   1   2
BRANCH   1  16
ATOM     16  C16 UNL     1      28.496  -9.835 -39.843  0.00  0.00    +0.000 A 
ATOM     17  C17 UNL     1      28.776 -10.972 -40.639  0.00  0.00    +0.000 A 
ATOM     18  C18 UNL     1      29.863 -10.935 -41.545  0.00  0.00    +0.000 A 
ATOM     19  C19 UNL     1      30.256 -12.043 -42.329  0.00  0.00    +0.000 A 
ATOM     20  C20 UNL     1      31.329 -11.938 -43.229  0.00  0.00    +0.000 A 
ATOM     21  C21 UNL     1      31.768 -13.130 -44.031  0.00  0.00    +0.000 C 
ATOM     22  C22 UNL     1      32.039 -10.734 -43.324  0.00  0.00    +0.000 A 
ATOM     23  C23 UNL     1      31.667  -9.636 -42.550  0.00  0.00    +0.000 A 
ATOM     24  C24 UNL     1      30.589  -9.728 -41.664  0.00  0.00    +0.000 A 
ATOM     25  O6  UNL     1      30.261  -8.668 -40.939  0.00  0.00    +0.000 OA
ATOM     26  C25 UNL     1      29.268  -8.670 -40.061  0.00  0.00    +0.000 A 
ATOM     27  O7  UNL     1      29.020  -7.607 -39.430  0.00  0.00    +0.000 OA
BRANCH  17  28
ATOM     28  O5  UNL     1      27.943 -12.092 -40.529  0.00  0.00    +0.000 OA
ATOM     29  H13 UNL     1      26.941 -12.078 -40.630  0.00  0.00    +0.000 HD
ENDBRANCH  17  28
ENDBRANCH   1  16
BRANCH   1  32
ATOM     30  C2  UNL     1      29.518  -9.718 -35.651  0.00  0.00    +0.000 A 
ATOM     31  C3  UNL     1      29.135  -9.725 -37.006  0.00  0.00    +0.000 A 
ATOM     32  C4  UNL     1      27.781  -9.793 -37.383  0.00  0.00    +0.000 A 
ATOM     33  C26 UNL     1      26.806  -9.832 -36.378  0.00  0.00    +0.000 A 
ATOM     34  C27 UNL     1      27.164  -9.811 -35.019  0.00  0.00    +0.000 A 
ATOM     35  C29 UNL     1      28.517  -9.761 -34.648  0.00  0.00    +0.000 A 
BRANCH  30  37
ATOM     36  C1  UNL     1      31.944  -9.324 -36.165  0.00  0.00    +0.000 C 
ATOM     37  O1  UNL     1      30.873  -9.662 -35.287  0.00  0.00    +0.000 OA
ENDBRANCH  30  37
BRANCH  34  38
ATOM     38  O8  UNL     1      26.199  -9.842 -33.999  0.00  0.00    +0.000 OA
ATOM     39  C28 UNL     1      25.028  -9.031 -33.968  0.00  0.00    +0.000 C 
ENDBRANCH  34  38
BRANCH  35  40
ATOM     40  O9  UNL     1      28.792  -9.755 -33.267  0.00  0.00    +0.000 OA
ATOM     41  C30 UNL     1      29.149  -8.624 -32.475  0.00  0.00    +0.000 C 
ENDBRANCH  35  40
ENDBRANCH   1  32
TORSDOF 8
ENDMDL
MODEL 4
REMARK VINA RESULT:    -6.157      2.359      6.438
REMARK INTER + INTRA:          -8.527
REMARK INTER:                  -9.206
REMARK INTRA:                   0.679
REMARK UNBOUND:                 0.150
REMARK  Name = resultss/4CJN/ligands/lig_367_t0.pdb
REMARK  13 active torsions:
REMARK  status: ('A' for Active; 'I' for Inactive)
REMARK    1  A    between atoms: C1_1  and  O1_2
REMARK    2  A    between atoms: O1_2  and  C2_3
REMARK    3  A    between atoms: C4_5  and  C5_6
REMARK    4  A    between atoms: C5_6  and  C6_7
REMARK    5  A    between atoms: C5_6  and  C16_20
REMARK    6  A    between atoms: C7_8  and  O2_9
REMARK    7  A    between atoms: C10_12  and  C11_13
REMARK    8  A    between atoms: C17_21  and  O5_22
REMARK    9  A    between atoms: C20_25  and  C21_26
REMARK   10  A    between atoms: C27_34  and  O8_35
REMARK   11  A    between atoms: O8_35  and  C28_36
REMARK   12  A    between atoms: C29_37  and  O9_38
REMARK   13  A    between atoms: O9_38  and  C30_39
REMARK                            x       y       z     vdW  Elec       q    Type
REMARK                         _______ _______ _______ _____ _____    ______ ____
ROOT
ATOM      1  C5  UNL     1      27.223  -9.747 -38.868  0.00  0.00    +0.000 C 
ENDROOT
BRANCH   1   2
ATOM      2  C6  UNL     1      26.166  -8.711 -39.288  0.00  0.00    +0.000 A 
ATOM      3  C7  UNL     1      25.316  -8.971 -40.398  0.00  0.00    +0.000 A 
ATOM      4  C8  UNL     1      24.334  -8.032 -40.753  0.00  0.00    +0.000 A 
ATOM      5  C9  UNL     1      23.451  -8.252 -41.828  0.00  0.00    +0.000 A 
ATOM      6  C10 UNL     1      22.471  -7.298 -42.147  0.00  0.00    +0.000 A 
ATOM      7  C11 UNL     1      21.560  -7.519 -43.319  0.00  0.00    +0.000 C 
ATOM      8  C12 UNL     1      22.396  -6.108 -41.410  0.00  0.00    +0.000 A 
ATOM      9  C13 UNL     1      23.271  -5.883 -40.344  0.00  0.00    +0.000 A 
ATOM     10  C14 UNL     1      24.237  -6.838 -40.013  0.00  0.00    +0.000 A 
ATOM     11  O3  UNL     1      25.065  -6.606 -39.008  0.00  0.00    +0.000 OA
ATOM     12  C15 UNL     1      26.006  -7.461 -38.628  0.00  0.00    +0.000 A 
ATOM     13  O4  UNL     1      26.762  -7.124 -37.679  0.00  0.00    +0.000 OA
BRANCH   3  14
ATOM     14  O2  UNL     1      25.429 -10.137 -41.165  0.00  0.00    +0.000 OA
ATOM     15  H6  UNL     1      25.067 -10.244 -42.101  0.00  0.00    +0.000 HD
ENDBRANCH   3  14
ENDBRANCH   1   2
BRANCH   1  16
ATOM     16  C16 UNL     1      28.435  -9.772 -39.810  0.00  0.00    +0.000 A 
ATOM     17  C17 UNL     1      28.737 -10.893 -40.620  0.00  0.00    +0.000 A 
ATOM     18  C18 UNL     1      29.867 -10.849 -41.473  0.00  0.00    +0.000 A 
ATOM     19  C19 UNL     1      30.282 -11.943 -42.266  0.00  0.00    +0.000 A 
ATOM     20  C20 UNL     1      31.397 -11.832 -43.111  0.00  0.00    +0.000 A 
ATOM     21  C21 UNL     1      31.858 -13.009 -43.921  0.00  0.00    +0.000 C 
ATOM     22  C22 UNL     1      32.127 -10.636 -43.141  0.00  0.00    +0.000 A 
ATOM     23  C23 UNL     1      31.734  -9.552 -42.358  0.00  0.00    +0.000 A 
ATOM     24  C24 UNL     1      30.614  -9.651 -41.527  0.00  0.00    +0.000 A 
ATOM     25  O6  UNL     1      30.265  -8.604 -40.791  0.00  0.00    +0.000 OA
ATOM     26  C25 UNL     1      29.231  -8.613 -39.962  0.00  0.00    +0.000 A 
ATOM     27  O7  UNL     1      28.967  -7.563 -39.317  0.00  0.00    +0.000 OA
BRANCH  17  28
ATOM     28  O5  UNL     1      27.885 -12.003 -40.579  0.00  0.00    +0.000 OA
ATOM     29  H13 UNL     1      26.942 -12.020 -40.932  0.00  0.00    +0.000 HD
ENDBRANCH  17  28
ENDBRANCH   1  16
BRANCH   1  32
ATOM     30  C2  UNL     1      27.032  -9.706 -35.001  0.00  0.00    +0.000 A 
ATOM     31  C3  UNL     1      26.648  -9.728 -36.356  0.00  0.00    +0.000 A 
ATOM     32  C4  UNL     1      27.605  -9.722 -37.387  0.00  0.00    +0.000 A 
ATOM     33  C26 UNL     1      28.963  -9.713 -37.042  0.00  0.00    +0.000 A 
ATOM     34  C27 UNL     1      29.370  -9.705 -35.697  0.00  0.00    +0.000 A 
ATOM     35  C29 UNL     1      28.411  -9.694 -34.672  0.00  0.00    +0.000 A 
BRANCH  30  37
ATOM     36  C1  UNL     1      25.349  -8.553 -33.536  0.00  0.00    +0.000 C 
ATOM     37  O1  UNL     1      26.068  -9.701 -33.981  0.00  0.00    +0.000 OA
ENDBRANCH  30  37
BRANCH  34  38
ATOM     38  O8  UNL     1      30.727  -9.704 -35.334  0.00  0.00    +0.000 OA
ATOM     39  C28 UNL     1      31.704  -8.814 -35.862  0.00  0.00    +0.000 C 
ENDBRANCH  34  38
BRANCH  35  40
ATOM     40  O9  UNL     1      28.900  -9.675 -33.351  0.00  0.00    +0.000 OA
ATOM     41  C30 UNL     1      29.113  -8.522 -32.539  0.00  0.00    +0.000 C 
ENDBRANCH  35  40
ENDBRANCH   1  32
TORSDOF 8
ENDMDL
MODEL 5
REMARK VINA RESULT:    -6.122      1.795      6.170
REMARK INTER + INTRA:          -8.478
REMARK INTER:                  -8.621
REMARK INTRA:                   0.143
REMARK UNBOUND:                 0.150
REMARK  Name = resultss/4CJN/ligands/lig_367_t0.pdb
REMARK  13 active torsions:
REMARK  status: ('A' for Active; 'I' for Inactive)
REMARK    1  A    between atoms: C1_1  and  O1_2
REMARK    2  A    between atoms: O1_2  and  C2_3
REMARK    3  A    between atoms: C4_5  and  C5_6
REMARK    4  A    between atoms: C5_6  and  C6_7
REMARK    5  A    between atoms: C5_6  and  C16_20
REMARK    6  A    between atoms: C7_8  and  O2_9
REMARK    7  A    between atoms: C10_12  and  C11_13
REMARK    8  A    between atoms: C17_21  and  O5_22
REMARK    9  A    between atoms: C20_25  and  C21_26
REMARK   10  A    between atoms: C27_34  and  O8_35
REMARK   11  A    between atoms: O8_35  and  C28_36
REMARK   12  A    between atoms: C29_37  and  O9_38
REMARK   13  A    between atoms: O9_38  and  C30_39
REMARK                            x       y       z     vdW  Elec       q    Type
REMARK                         _______ _______ _______ _____ _____    ______ ____
ROOT
ATOM      1  C5  UNL     1      28.709  -9.963 -40.536  0.00  0.00    +0.000 C 
ENDROOT
BRANCH   1   2
ATOM      2  C6  UNL     1      28.816  -9.111 -39.260  0.00  0.00    +0.000 A 
ATOM      3  C7  UNL     1      28.684  -9.723 -37.983  0.00  0.00    +0.000 A 
ATOM      4  C8  UNL     1      28.815  -8.941 -36.823  0.00  0.00    +0.000 A 
ATOM      5  C9  UNL     1      28.717  -9.502 -35.535  0.00  0.00    +0.000 A 
ATOM      6  C10 UNL     1      28.868  -8.694 -34.396  0.00  0.00    +0.000 A 
ATOM      7  C11 UNL     1      28.722  -9.289 -33.027  0.00  0.00    +0.000 C 
ATOM      8  C12 UNL     1      29.084  -7.317 -34.548  0.00  0.00    +0.000 A 
ATOM      9  C13 UNL     1      29.179  -6.755 -35.823  0.00  0.00    +0.000 A 
ATOM     10  C14 UNL     1      29.047  -7.560 -36.959  0.00  0.00    +0.000 A 
ATOM     11  O3  UNL     1      29.129  -7.010 -38.160  0.00  0.00    +0.000 OA
ATOM     12  C15 UNL     1      29.018  -7.704 -39.286  0.00  0.00    +0.000 A 
ATOM     13  O4  UNL     1      29.078  -7.075 -40.374  0.00  0.00    +0.000 OA
BRANCH   3  14
ATOM     14  O2  UNL     1      28.416 -11.090 -37.836  0.00  0.00    +0.000 OA
ATOM     15  H6  UNL     1      27.624 -11.565 -38.244  0.00  0.00    +0.000 HD
ENDBRANCH   3  14
ENDBRANCH   1   2
BRANCH   1  16
ATOM     16  C16 UNL     1      27.634  -9.447 -41.503  0.00  0.00    +0.000 A 
ATOM     17  C17 UNL     1      27.944  -8.592 -42.589  0.00  0.00    +0.000 A 
ATOM     18  C18 UNL     1      26.905  -8.156 -43.447  0.00  0.00    +0.000 A 
ATOM     19  C19 UNL     1      27.109  -7.252 -44.513  0.00  0.00    +0.000 A 
ATOM     20  C20 UNL     1      26.044  -6.874 -45.346  0.00  0.00    +0.000 A 
ATOM     21  C21 UNL     1      26.259  -5.883 -46.454  0.00  0.00    +0.000 C 
ATOM     22  C22 UNL     1      24.759  -7.373 -45.095  0.00  0.00    +0.000 A 
ATOM     23  C23 UNL     1      24.541  -8.258 -44.041  0.00  0.00    +0.000 A 
ATOM     24  C24 UNL     1      25.601  -8.651 -43.218  0.00  0.00    +0.000 A 
ATOM     25  O6  UNL     1      25.363  -9.493 -42.222  0.00  0.00    +0.000 OA
ATOM     26  C25 UNL     1      26.302  -9.904 -41.381  0.00  0.00    +0.000 A 
ATOM     27  O7  UNL     1      25.982 -10.720 -40.475  0.00  0.00    +0.000 OA
BRANCH  17  28
ATOM     28  O5  UNL     1      29.279  -8.230 -42.801  0.00  0.00    +0.000 OA
ATOM     29  H13 UNL     1      29.628  -7.286 -42.798  0.00  0.00    +0.000 HD
ENDBRANCH  17  28
ENDBRANCH   1  16
BRANCH   1  32
ATOM     30  C2  UNL     1      31.370 -11.344 -42.987  0.00  0.00    +0.000 A 
ATOM     31  C3  UNL     1      30.128 -11.071 -42.380  0.00  0.00    +0.000 A 
ATOM     32  C4  UNL     1      30.040 -10.280 -41.220  0.00  0.00    +0.000 A 
ATOM     33  C26 UNL     1      31.218  -9.745 -40.682  0.00  0.00    +0.000 A 
ATOM     34  C27 UNL     1      32.466  -9.992 -41.278  0.00  0.00    +0.000 A 
ATOM     35  C29 UNL     1      32.550 -10.796 -42.425  0.00  0.00    +0.000 A 
BRANCH  30  37
ATOM     36  C1  UNL     1      32.140 -13.387 -44.228  0.00  0.00    +0.000 C 
ATOM     37  O1  UNL     1      31.447 -12.145 -44.138  0.00  0.00    +0.000 OA
ENDBRANCH  30  37
BRANCH  34  38
ATOM     38  O8  UNL     1      33.655  -9.457 -40.756  0.00  0.00    +0.000 OA
ATOM     39  C28 UNL     1      33.819  -8.104 -40.342  0.00  0.00    +0.000 C 
ENDBRANCH  34  38
BRANCH  35  40
ATOM     40  O9  UNL     1      33.839 -11.006 -42.955  0.00  0.00    +0.000 OA
ATOM     41  C30 UNL     1      34.379 -10.419 -44.138  0.00  0.00    +0.000 C 
ENDBRANCH  35  40
ENDBRANCH   1  32
TORSDOF 8
ENDMDL
MODEL 6
REMARK VINA RESULT:    -6.072      1.996      6.272
REMARK INTER + INTRA:          -8.407
REMARK INTER:                  -8.643
REMARK INTRA:                   0.236
REMARK UNBOUND:                 0.150
REMARK  Name = resultss/4CJN/ligands/lig_367_t0.pdb
REMARK  13 active torsions:
REMARK  status: ('A' for Active; 'I' for Inactive)
REMARK    1  A    between atoms: C1_1  and  O1_2
REMARK    2  A    between atoms: O1_2  and  C2_3
REMARK    3  A    between atoms: C4_5  and  C5_6
REMARK    4  A    between atoms: C5_6  and  C6_7
REMARK    5  A    between atoms: C5_6  and  C16_20
REMARK    6  A    between atoms: C7_8  and  O2_9
REMARK    7  A    between atoms: C10_12  and  C11_13
REMARK    8  A    between atoms: C17_21  and  O5_22
REMARK    9  A    between atoms: C20_25  and  C21_26
REMARK   10  A    between atoms: C27_34  and  O8_35
REMARK   11  A    between atoms: O8_35  and  C28_36
REMARK   12  A    between atoms: C29_37  and  O9_38
REMARK   13  A    between atoms: O9_38  and  C30_39
REMARK                            x       y       z     vdW  Elec       q    Type
REMARK                         _______ _______ _______ _____ _____    ______ ____
ROOT
ATOM      1  C5  UNL     1      29.297 -10.123 -40.474  0.00  0.00    +0.000 C 
ENDROOT
BRANCH   1   2
ATOM      2  C6  UNL     1      29.475  -9.278 -39.201  0.00  0.00    +0.000 A 
ATOM      3  C7  UNL     1      29.093  -9.805 -37.937  0.00  0.00    +0.000 A 
ATOM      4  C8  UNL     1      29.290  -9.036 -36.777  0.00  0.00    +0.000 A 
ATOM      5  C9  UNL     1      28.951  -9.521 -35.499  0.00  0.00    +0.000 A 
ATOM      6  C10 UNL     1      29.175  -8.731 -34.360  0.00  0.00    +0.000 A 
ATOM      7  C11 UNL     1      28.775  -9.236 -33.005  0.00  0.00    +0.000 C 
ATOM      8  C12 UNL     1      29.707  -7.442 -34.503  0.00  0.00    +0.000 A 
ATOM      9  C13 UNL     1      30.042  -6.955 -35.770  0.00  0.00    +0.000 A 
ATOM     10  C14 UNL     1      29.836  -7.745 -36.905  0.00  0.00    +0.000 A 
ATOM     11  O3  UNL     1      30.149  -7.265 -38.097  0.00  0.00    +0.000 OA
ATOM     12  C15 UNL     1      29.988  -7.951 -39.222  0.00  0.00    +0.000 A 
ATOM     13  O4  UNL     1      30.288  -7.385 -40.306  0.00  0.00    +0.000 OA
BRANCH   3  14
ATOM     14  O2  UNL     1      28.514 -11.072 -37.803  0.00  0.00    +0.000 OA
ATOM     15  H6  UNL     1      29.015 -11.944 -37.896  0.00  0.00    +0.000 HD
ENDBRANCH   3  14
ENDBRANCH   1   2
BRANCH   1  16
ATOM     16  C16 UNL     1      28.099  -9.671 -41.321  0.00  0.00    +0.000 A 
ATOM     17  C17 UNL     1      28.232  -8.743 -42.382  0.00  0.00    +0.000 A 
ATOM     18  C18 UNL     1      27.087  -8.373 -43.129  0.00  0.00    +0.000 A 
ATOM     19  C19 UNL     1      27.114  -7.406 -44.159  0.00  0.00    +0.000 A 
ATOM     20  C20 UNL     1      25.950  -7.097 -44.881  0.00  0.00    +0.000 A 
ATOM     21  C21 UNL     1      25.975  -6.042 -45.948  0.00  0.00    +0.000 C 
ATOM     22  C22 UNL     1      24.743  -7.729 -44.553  0.00  0.00    +0.000 A 
ATOM     23  C23 UNL     1      24.701  -8.678 -43.533  0.00  0.00    +0.000 A 
ATOM     24  C24 UNL     1      25.860  -9.002 -42.821  0.00  0.00    +0.000 A 
ATOM     25  O6  UNL     1      25.788  -9.907 -41.854  0.00  0.00    +0.000 OA
ATOM     26  C25 UNL     1      26.830 -10.262 -41.115  0.00  0.00    +0.000 A 
ATOM     27  O7  UNL     1      26.668 -11.144 -40.230  0.00  0.00    +0.000 OA
BRANCH  17  28
ATOM     28  O5  UNL     1      29.505  -8.244 -42.683  0.00  0.00    +0.000 OA
ATOM     29  H13 UNL     1      29.712  -7.280 -42.891  0.00  0.00    +0.000 HD
ENDBRANCH  17  28
ENDBRANCH   1  16
BRANCH   1  32
ATOM     30  C2  UNL     1      32.972 -10.035 -41.689  0.00  0.00    +0.000 A 
ATOM     31  C3  UNL     1      31.817  -9.812 -40.914  0.00  0.00    +0.000 A 
ATOM     32  C4  UNL     1      30.570 -10.345 -41.291  0.00  0.00    +0.000 A 
ATOM     33  C26 UNL     1      30.498 -11.126 -42.452  0.00  0.00    +0.000 A 
ATOM     34  C27 UNL     1      31.640 -11.374 -43.232  0.00  0.00    +0.000 A 
ATOM     35  C29 UNL     1      32.878 -10.826 -42.861  0.00  0.00    +0.000 A 
BRANCH  30  37
ATOM     36  C1  UNL     1      34.380  -8.386 -40.421  0.00  0.00    +0.000 C 
ATOM     37  O1  UNL     1      34.208  -9.489 -41.308  0.00  0.00    +0.000 OA
ENDBRANCH  30  37
BRANCH  34  38
ATOM     38  O8  UNL     1      31.587 -12.162 -44.393  0.00  0.00    +0.000 OA
ATOM     39  C28 UNL     1      32.202 -13.439 -44.533  0.00  0.00    +0.000 C 
ENDBRANCH  34  38
BRANCH  35  40
ATOM     40  O9  UNL     1      33.971 -11.112 -43.702  0.00  0.00    +0.000 OA
ATOM     41  C30 UNL     1      34.353 -10.396 -44.875  0.00  0.00    +0.000 C 
ENDBRANCH  35  40
ENDBRANCH   1  32
TORSDOF 8
ENDMDL
MODEL 7
REMARK VINA RESULT:    -5.652      3.622      7.802
REMARK INTER + INTRA:          -7.815
REMARK INTER:                  -7.960
REMARK INTRA:                   0.145
REMARK UNBOUND:                 0.150
REMARK  Name = resultss/4CJN/ligands/lig_367_t0.pdb
REMARK  13 active torsions:
REMARK  status: ('A' for Active; 'I' for Inactive)
REMARK    1  A    between atoms: C1_1  and  O1_2
REMARK    2  A    between atoms: O1_2  and  C2_3
REMARK    3  A    between atoms: C4_5  and  C5_6
REMARK    4  A    between atoms: C5_6  and  C6_7
REMARK    5  A    between atoms: C5_6  and  C16_20
REMARK    6  A    between atoms: C7_8  and  O2_9
REMARK    7  A    between atoms: C10_12  and  C11_13
REMARK    8  A    between atoms: C17_21  and  O5_22
REMARK    9  A    between atoms: C20_25  and  C21_26
REMARK   10  A    between atoms: C27_34  and  O8_35
REMARK   11  A    between atoms: O8_35  and  C28_36
REMARK   12  A    between atoms: C29_37  and  O9_38
REMARK   13  A    between atoms: O9_38  and  C30_39
REMARK                            x       y       z     vdW  Elec       q    Type
REMARK                         _______ _______ _______ _____ _____    ______ ____
ROOT
ATOM      1  C5  UNL     1      28.593  -9.628 -35.985  0.00  0.00    +0.000 C 
ENDROOT
BRANCH   1   2
ATOM      2  C6  UNL     1      29.623  -8.705 -35.311  0.00  0.00    +0.000 A 
ATOM      3  C7  UNL     1      30.245  -9.101 -34.095  0.00  0.00    +0.000 A 
ATOM      4  C8  UNL     1      31.207  -8.264 -33.505  0.00  0.00    +0.000 A 
ATOM      5  C9  UNL     1      31.870  -8.620 -32.315  0.00  0.00    +0.000 A 
ATOM      6  C10 UNL     1      32.837  -7.767 -31.760  0.00  0.00    +0.000 A 
ATOM      7  C11 UNL     1      33.511  -8.132 -30.469  0.00  0.00    +0.000 C 
ATOM      8  C12 UNL     1      33.118  -6.541 -32.380  0.00  0.00    +0.000 A 
ATOM      9  C13 UNL     1      32.461  -6.182 -33.560  0.00  0.00    +0.000 A 
ATOM     10  C14 UNL     1      31.509  -7.037 -34.124  0.00  0.00    +0.000 A 
ATOM     11  O3  UNL     1      30.889  -6.677 -35.236  0.00  0.00    +0.000 OA
ATOM     12  C15 UNL     1      29.977  -7.432 -35.836  0.00  0.00    +0.000 A 
ATOM     13  O4  UNL     1      29.425  -6.977 -36.872  0.00  0.00    +0.000 OA
BRANCH   3  14
ATOM     14  O2  UNL     1      29.924 -10.302 -33.451  0.00  0.00    +0.000 OA
ATOM     15  H6  UNL     1      29.168 -10.913 -33.724  0.00  0.00    +0.000 HD
ENDBRANCH   3  14
ENDBRANCH   1   2
BRANCH   1  16
ATOM     16  C16 UNL     1      27.147  -9.269 -35.617  0.00  0.00    +0.000 A 
ATOM     17  C17 UNL     1      26.377  -8.360 -36.382  0.00  0.00    +0.000 A 
ATOM     18  C18 UNL     1      25.046  -8.077 -35.990  0.00  0.00    +0.000 A 
ATOM     19  C19 UNL     1      24.228  -7.135 -36.653  0.00  0.00    +0.000 A 
ATOM     20  C20 UNL     1      22.906  -6.913 -36.233  0.00  0.00    +0.000 A 
ATOM     21  C21 UNL     1      22.053  -5.883 -36.916  0.00  0.00    +0.000 C 
ATOM     22  C22 UNL     1      22.406  -7.608 -35.124  0.00  0.00    +0.000 A 
ATOM     23  C23 UNL     1      23.206  -8.534 -34.455  0.00  0.00    +0.000 A 
ATOM     24  C24 UNL     1      24.517  -8.771 -34.878  0.00  0.00    +0.000 A 
ATOM     25  O6  UNL     1      25.254  -9.656 -34.221  0.00  0.00    +0.000 OA
ATOM     26  C25 UNL     1      26.512  -9.930 -34.540  0.00  0.00    +0.000 A 
ATOM     27  O7  UNL     1      27.127 -10.800 -33.866  0.00  0.00    +0.000 OA
BRANCH  17  28
ATOM     28  O5  UNL     1      26.947  -7.792 -37.527  0.00  0.00    +0.000 OA
ATOM     29  H13 UNL     1      27.701  -7.124 -37.526  0.00  0.00    +0.000 HD
ENDBRANCH  17  28
ENDBRANCH   1  16
BRANCH   1  32
ATOM     30  C2  UNL     1      30.188  -9.814 -39.509  0.00  0.00    +0.000 A 
ATOM     31  C3  UNL     1      30.028  -9.598 -38.126  0.00  0.00    +0.000 A 
ATOM     32  C4  UNL     1      28.801  -9.850 -37.484  0.00  0.00    +0.000 A 
ATOM     33  C26 UNL     1      27.734 -10.343 -38.247  0.00  0.00    +0.000 A 
ATOM     34  C27 UNL     1      27.875 -10.579 -39.624  0.00  0.00    +0.000 A 
ATOM     35  C29 UNL     1      29.096 -10.311 -40.263  0.00  0.00    +0.000 A 
BRANCH  30  37
ATOM     36  C1  UNL     1      32.409  -8.650 -39.655  0.00  0.00    +0.000 C 
ATOM     37  O1  UNL     1      31.414  -9.548 -40.140  0.00  0.00    +0.000 OA
ENDBRANCH  30  37
BRANCH  34  38
ATOM     38  O8  UNL     1      26.818 -11.081 -40.401  0.00  0.00    +0.000 OA
ATOM     39  C28 UNL     1      25.755 -10.292 -40.926  0.00  0.00    +0.000 C 
ENDBRANCH  34  38
BRANCH  35  40
ATOM     40  O9  UNL     1      29.152 -10.563 -41.648  0.00  0.00    +0.000 OA
ATOM     41  C30 UNL     1      29.039  -9.600 -42.694  0.00  0.00    +0.000 C 
ENDBRANCH  35  40
ENDBRANCH   1  32
TORSDOF 8
ENDMDL
MODEL 8
REMARK VINA RESULT:    -5.629      3.637      7.800
REMARK INTER + INTRA:          -7.782
REMARK INTER:                  -7.816
REMARK INTRA:                   0.034
REMARK UNBOUND:                 0.150
REMARK  Name = resultss/4CJN/ligands/lig_367_t0.pdb
REMARK  13 active torsions:
REMARK  status: ('A' for Active; 'I' for Inactive)
REMARK    1  A    between atoms: C1_1  and  O1_2
REMARK    2  A    between atoms: O1_2  and  C2_3
REMARK    3  A    between atoms: C4_5  and  C5_6
REMARK    4  A    between atoms: C5_6  and  C6_7
REMARK    5  A    between atoms: C5_6  and  C16_20
REMARK    6  A    between atoms: C7_8  and  O2_9
REMARK    7  A    between atoms: C10_12  and  C11_13
REMARK    8  A    between atoms: C17_21  and  O5_22
REMARK    9  A    between atoms: C20_25  and  C21_26
REMARK   10  A    between atoms: C27_34  and  O8_35
REMARK   11  A    between atoms: O8_35  and  C28_36
REMARK   12  A    between atoms: C29_37  and  O9_38
REMARK   13  A    between atoms: O9_38  and  C30_39
REMARK                            x       y       z     vdW  Elec       q    Type
REMARK                         _______ _______ _______ _____ _____    ______ ____
ROOT
ATOM      1  C5  UNL     1      28.254  -9.450 -35.766  0.00  0.00    +0.000 C 
ENDROOT
BRANCH   1   2
ATOM      2  C6  UNL     1      29.253  -8.545 -35.024  0.00  0.00    +0.000 A 
ATOM      3  C7  UNL     1      29.991  -9.055 -33.921  0.00  0.00    +0.000 A 
ATOM      4  C8  UNL     1      30.924  -8.229 -33.271  0.00  0.00    +0.000 A 
ATOM      5  C9  UNL     1      31.698  -8.692 -32.189  0.00  0.00    +0.000 A 
ATOM      6  C10 UNL     1      32.632  -7.844 -31.572  0.00  0.00    +0.000 A 
ATOM      7  C11 UNL     1      33.424  -8.329 -30.394  0.00  0.00    +0.000 C 
ATOM      8  C12 UNL     1      32.767  -6.521 -32.016  0.00  0.00    +0.000 A 
ATOM      9  C13 UNL     1      31.999  -6.056 -33.087  0.00  0.00    +0.000 A 
ATOM     10  C14 UNL     1      31.081  -6.902 -33.715  0.00  0.00    +0.000 A 
ATOM     11  O3  UNL     1      30.354  -6.443 -34.721  0.00  0.00    +0.000 OA
ATOM     12  C15 UNL     1      29.464  -7.183 -35.372  0.00  0.00    +0.000 A 
ATOM     13  O4  UNL     1      28.803  -6.635 -36.292  0.00  0.00    +0.000 OA
BRANCH   3  14
ATOM     14  O2  UNL     1      29.816 -10.360 -33.446  0.00  0.00    +0.000 OA
ATOM     15  H6  UNL     1      30.317 -10.758 -32.665  0.00  0.00    +0.000 HD
ENDBRANCH   3  14
ENDBRANCH   1   2
BRANCH   1  16
ATOM     16  C16 UNL     1      26.793  -9.112 -35.437  0.00  0.00    +0.000 A 
ATOM     17  C17 UNL     1      26.019  -8.244 -36.246  0.00  0.00    +0.000 A 
ATOM     18  C18 UNL     1      24.675  -7.979 -35.890  0.00  0.00    +0.000 A 
ATOM     19  C19 UNL     1      23.850  -7.077 -36.599  0.00  0.00    +0.000 A 
ATOM     20  C20 UNL     1      22.516  -6.872 -36.213  0.00  0.00    +0.000 A 
ATOM     21  C21 UNL     1      21.655  -5.883 -36.945  0.00  0.00    +0.000 C 
ATOM     22  C22 UNL     1      22.008  -7.542 -35.092  0.00  0.00    +0.000 A 
ATOM     23  C23 UNL     1      22.814  -8.428 -34.378  0.00  0.00    +0.000 A 
ATOM     24  C24 UNL     1      24.138  -8.649 -34.768  0.00  0.00    +0.000 A 
ATOM     25  O6  UNL     1      24.881  -9.496 -34.068  0.00  0.00    +0.000 OA
ATOM     26  C25 UNL     1      26.150  -9.752 -34.352  0.00  0.00    +0.000 A 
ATOM     27  O7  UNL     1      26.770 -10.586 -33.639  0.00  0.00    +0.000 OA
BRANCH  17  28
ATOM     28  O5  UNL     1      26.600  -7.701 -37.398  0.00  0.00    +0.000 OA
ATOM     29  H13 UNL     1      27.248  -8.183 -37.999  0.00  0.00    +0.000 HD
ENDBRANCH  17  28
ENDBRANCH   1  16
BRANCH   1  32
ATOM     30  C2  UNL     1      27.878 -10.393 -39.502  0.00  0.00    +0.000 A 
ATOM     31  C3  UNL     1      27.606 -10.253 -38.127  0.00  0.00    +0.000 A 
ATOM     32  C4  UNL     1      28.517  -9.620 -37.262  0.00  0.00    +0.000 A 
ATOM     33  C26 UNL     1      29.706  -9.107 -37.799  0.00  0.00    +0.000 A 
ATOM     34  C27 UNL     1      29.991  -9.222 -39.170  0.00  0.00    +0.000 A 
ATOM     35  C29 UNL     1      29.086  -9.869 -40.026  0.00  0.00    +0.000 A 
BRANCH  30  37
ATOM     36  C1  UNL     1      25.929 -10.387 -41.086  0.00  0.00    +0.000 C 
ATOM     37  O1  UNL     1      26.965 -11.036 -40.353  0.00  0.00    +0.000 OA
ENDBRANCH  30  37
BRANCH  34  38
ATOM     38  O8  UNL     1      31.174  -8.705 -39.726  0.00  0.00    +0.000 OA
ATOM     39  C28 UNL     1      32.456  -9.312 -39.604  0.00  0.00    +0.000 C 
ENDBRANCH  34  38
BRANCH  35  40
ATOM     40  O9  UNL     1      29.452  -9.953 -41.384  0.00  0.00    +0.000 OA
ATOM     41  C30 UNL     1      30.028 -11.080 -42.043  0.00  0.00    +0.000 C 
ENDBRANCH  35  40
ENDBRANCH   1  32
TORSDOF 8
ENDMDL
MODEL 9
REMARK VINA RESULT:    -5.470      4.146      7.964
REMARK INTER + INTRA:          -7.559
REMARK INTER:                  -8.352
REMARK INTRA:                   0.793
REMARK UNBOUND:                 0.150
REMARK  Name = resultss/4CJN/ligands/lig_367_t0.pdb
REMARK  13 active torsions:
REMARK  status: ('A' for Active; 'I' for Inactive)
REMARK    1  A    between atoms: C1_1  and  O1_2
REMARK    2  A    between atoms: O1_2  and  C2_3
REMARK    3  A    between atoms: C4_5  and  C5_6
REMARK    4  A    between atoms: C5_6  and  C6_7
REMARK    5  A    between atoms: C5_6  and  C16_20
REMARK    6  A    between atoms: C7_8  and  O2_9
REMARK    7  A    between atoms: C10_12  and  C11_13
REMARK    8  A    between atoms: C17_21  and  O5_22
REMARK    9  A    between atoms: C20_25  and  C21_26
REMARK   10  A    between atoms: C27_34  and  O8_35
REMARK   11  A    between atoms: O8_35  and  C28_36
REMARK   12  A    between atoms: C29_37  and  O9_38
REMARK   13  A    between atoms: O9_38  and  C30_39
REMARK                            x       y       z     vdW  Elec       q    Type
REMARK                         _______ _______ _______ _____ _____    ______ ____
ROOT
ATOM      1  C5  UNL     1      29.143  -9.440 -35.390  0.00  0.00    +0.000 C 
ENDROOT
BRANCH   1   2
ATOM      2  C6  UNL     1      27.990  -8.637 -34.763  0.00  0.00    +0.000 A 
ATOM      3  C7  UNL     1      26.660  -8.818 -35.231  0.00  0.00    +0.000 A 
ATOM      4  C8  UNL     1      25.610  -8.103 -34.630  0.00  0.00    +0.000 A 
ATOM      5  C9  UNL     1      24.273  -8.263 -35.040  0.00  0.00    +0.000 A 
ATOM      6  C10 UNL     1      23.246  -7.543 -34.408  0.00  0.00    +0.000 A 
ATOM      7  C11 UNL     1      21.828  -7.686 -34.876  0.00  0.00    +0.000 C 
ATOM      8  C12 UNL     1      23.564  -6.637 -33.385  0.00  0.00    +0.000 A 
ATOM      9  C13 UNL     1      24.890  -6.473 -32.976  0.00  0.00    +0.000 A 
ATOM     10  C14 UNL     1      25.912  -7.200 -33.593  0.00  0.00    +0.000 A 
ATOM     11  O3  UNL     1      27.163  -7.025 -33.201  0.00  0.00    +0.000 OA
ATOM     12  C15 UNL     1      28.190  -7.678 -33.731  0.00  0.00    +0.000 A 
ATOM     13  O4  UNL     1      29.343  -7.410 -33.306  0.00  0.00    +0.000 OA
BRANCH   3  14
ATOM     14  O2  UNL     1      26.354  -9.684 -36.288  0.00  0.00    +0.000 OA
ATOM     15  H6  UNL     1      25.419  -9.880 -36.615  0.00  0.00    +0.000 HD
ENDBRANCH   3  14
ENDBRANCH   1   2
BRANCH   1  16
ATOM     16  C16 UNL     1      29.461  -8.997 -36.825  0.00  0.00    +0.000 A 
ATOM     17  C17 UNL     1      29.275  -9.853 -37.937  0.00  0.00    +0.000 A 
ATOM     18  C18 UNL     1      29.581  -9.380 -39.236  0.00  0.00    +0.000 A 
ATOM     19  C19 UNL     1      29.490 -10.184 -40.394  0.00  0.00    +0.000 A 
ATOM     20  C20 UNL     1      29.785  -9.652 -41.660  0.00  0.00    +0.000 A 
ATOM     21  C21 UNL     1      29.724 -10.521 -42.883  0.00  0.00    +0.000 C 
ATOM     22  C22 UNL     1      30.208  -8.321 -41.770  0.00  0.00    +0.000 A 
ATOM     23  C23 UNL     1      30.311  -7.519 -40.635  0.00  0.00    +0.000 A 
ATOM     24  C24 UNL     1      30.003  -8.038 -39.373  0.00  0.00    +0.000 A 
ATOM     25  O6  UNL     1      30.113  -7.252 -38.311  0.00  0.00    +0.000 OA
ATOM     26  C25 UNL     1      29.860  -7.664 -37.076  0.00  0.00    +0.000 A 
ATOM     27  O7  UNL     1      29.976  -6.838 -36.131  0.00  0.00    +0.000 OA
BRANCH  17  28
ATOM     28  O5  UNL     1      28.758 -11.136 -37.720  0.00  0.00    +0.000 OA
ATOM     29  H13 UNL     1      28.358 -11.725 -38.433  0.00  0.00    +0.000 HD
ENDBRANCH  17  28
ENDBRANCH   1  16
BRANCH   1  32
ATOM     30  C2  UNL     1      31.519 -10.350 -32.470  0.00  0.00    +0.000 A 
ATOM     31  C3  UNL     1      30.357 -10.228 -33.257  0.00  0.00    +0.000 A 
ATOM     32  C4  UNL     1      30.385  -9.589 -34.510  0.00  0.00    +0.000 A 
ATOM     33  C26 UNL     1      31.606  -9.086 -34.979  0.00  0.00    +0.000 A 
ATOM     34  C27 UNL     1      32.781  -9.209 -34.218  0.00  0.00    +0.000 A 
ATOM     35  C29 UNL     1      32.744  -9.832 -32.961  0.00  0.00    +0.000 A 
BRANCH  30  37
ATOM     36  C1  UNL     1      32.105 -12.219 -30.899  0.00  0.00    +0.000 C 
ATOM     37  O1  UNL     1      31.475 -10.980 -31.217  0.00  0.00    +0.000 OA
ENDBRANCH  30  37
BRANCH  34  38
ATOM     38  O8  UNL     1      34.015  -8.718 -34.677  0.00  0.00    +0.000 OA
ATOM     39  C28 UNL     1      34.380  -7.341 -34.699  0.00  0.00    +0.000 C 
ENDBRANCH  34  38
BRANCH  35  40
ATOM     40  O9  UNL     1      33.962  -9.905 -32.257  0.00  0.00    +0.000 OA
ATOM     41  C30 UNL     1      34.379  -9.058 -31.187  0.00  0.00    +0.000 C 
ENDBRANCH  35  40
ENDBRANCH   1  32
TORSDOF 8
ENDMDL
