MODEL 1
REMARK VINA RESULT:    -6.668      0.000      0.000
REMARK INTER + INTRA:          -8.985
REMARK INTER:                  -8.423
REMARK INTRA:                  -0.563
REMARK UNBOUND:                -0.563
REMARK  Name = resultss/4CJN/ligands/lig_173_t1.pdb
REMARK  5 active torsions:
REMARK  status: ('A' for Active; 'I' for Inactive)
REMARK    1  A    between atoms: O1_1  and  C1_2
REMARK    2  A    between atoms: C1_2  and  C9_13
REMARK    3  A    between atoms: N1_3  and  N2_4
REMARK    4  A    between atoms: C2_5  and  C3_6
REMARK    5  A    between atoms: C12_16  and  C13_17
REMARK                            x       y       z     vdW  Elec       q    Type
REMARK                         _______ _______ _______ _____ _____    ______ ____
ROOT
ATOM      1  C9  UNL     1      26.347  -9.500 -40.436  0.00  0.00    +0.000 A 
ATOM      2  C10 UNL     1      26.884 -10.754 -40.111  0.00  0.00    +0.000 A 
ATOM      3  C11 UNL     1      28.128 -11.144 -40.613  0.00  0.00    +0.000 A 
ATOM      4  C12 UNL     1      28.855 -10.293 -41.463  0.00  0.00    +0.000 A 
ATOM      5  C20 UNL     1      28.303  -9.047 -41.810  0.00  0.00    +0.000 A 
ATOM      6  C21 UNL     1      27.058  -8.658 -41.307  0.00  0.00    +0.000 A 
ENDROOT
BRANCH   4   7
ATOM      7  C13 UNL     1      30.175 -10.715 -41.988  0.00  0.00    +0.000 A 
ATOM      8  N3  UNL     1      30.333 -11.742 -42.863  0.00  0.00    +0.000 NA
ATOM      9  C14 UNL     1      31.639 -11.924 -43.184  0.00  0.00    +0.000 A 
ATOM     10  C15 UNL     1      32.107 -12.905 -44.061  0.00  0.00    +0.000 A 
ATOM     11  C16 UNL     1      33.489 -12.987 -44.307  0.00  0.00    +0.000 A 
ATOM     12  C17 UNL     1      34.380 -12.093 -43.680  0.00  0.00    +0.000 A 
ATOM     13  C18 UNL     1      33.898 -11.111 -42.800  0.00  0.00    +0.000 A 
ATOM     14  C19 UNL     1      32.525 -11.052 -42.573  0.00  0.00    +0.000 A 
ATOM     15  S1  UNL     1      31.666 -10.002 -41.589  0.00  0.00    +0.000 S 
ENDBRANCH   4   7
BRANCH   1  16
ATOM     16  C1  UNL     1      25.019  -9.115 -39.903  0.00  0.00    +0.000 C 
ATOM     17  N1  UNL     1      24.840  -8.740 -38.670  0.00  0.00    +0.000 NA
BRANCH  16  18
ATOM     18  O1  UNL     1      23.917  -9.186 -40.752  0.00  0.00    +0.000 OA
ATOM     19  H1  UNL     1      23.447 -10.066 -40.929  0.00  0.00    +0.000 HD
ENDBRANCH  16  18
BRANCH  17  20
ATOM     20  N2  UNL     1      25.878  -8.708 -37.729  0.00  0.00    +0.000 NA
ATOM     21  C2  UNL     1      25.747  -9.276 -36.572  0.00  0.00    +0.000 C 
BRANCH  21  22
ATOM     22  C3  UNL     1      26.839  -9.235 -35.579  0.00  0.00    +0.000 A 
ATOM     23  C4  UNL     1      26.602  -8.673 -34.314  0.00  0.00    +0.000 A 
ATOM     24  C5  UNL     1      27.623  -8.623 -33.360  0.00  0.00    +0.000 A 
ATOM     25  C6  UNL     1      28.890  -9.132 -33.661  0.00  0.00    +0.000 A 
ATOM     26  F1  UNL     1      29.878  -9.082 -32.734  0.00  0.00    +0.000 F 
ATOM     27  C7  UNL     1      29.136  -9.692 -34.917  0.00  0.00    +0.000 A 
ATOM     28  C8  UNL     1      28.119  -9.745 -35.875  0.00  0.00    +0.000 A 
ENDBRANCH  21  22
ENDBRANCH  17  20
ENDBRANCH   1  16
TORSDOF 5
ENDMDL
MODEL 2
REMARK VINA RESULT:    -6.427      3.757      8.225
REMARK INTER + INTRA:          -8.680
REMARK INTER:                  -8.163
REMARK INTRA:                  -0.518
REMARK UNBOUND:                -0.563
REMARK  Name = resultss/4CJN/ligands/lig_173_t1.pdb
REMARK  5 active torsions:
REMARK  status: ('A' for Active; 'I' for Inactive)
REMARK    1  A    between atoms: O1_1  and  C1_2
REMARK    2  A    between atoms: C1_2  and  C9_13
REMARK    3  A    between atoms: N1_3  and  N2_4
REMARK    4  A    between atoms: C2_5  and  C3_6
REMARK    5  A    between atoms: C12_16  and  C13_17
REMARK                            x       y       z     vdW  Elec       q    Type
REMARK                         _______ _______ _______ _____ _____    ______ ____
ROOT
ATOM      1  C9  UNL     1      25.876  -8.546 -36.237  0.00  0.00    +0.000 A 
ATOM      2  C10 UNL     1      26.768  -7.468 -36.136  0.00  0.00    +0.000 A 
ATOM      3  C11 UNL     1      27.900  -7.559 -35.322  0.00  0.00    +0.000 A 
ATOM      4  C12 UNL     1      28.156  -8.725 -34.580  0.00  0.00    +0.000 A 
ATOM      5  C20 UNL     1      27.247  -9.795 -34.662  0.00  0.00    +0.000 A 
ATOM      6  C21 UNL     1      26.114  -9.703 -35.476  0.00  0.00    +0.000 A 
ENDROOT
BRANCH   4   7
ATOM      7  C13 UNL     1      29.361  -8.813 -33.722  0.00  0.00    +0.000 A 
ATOM      8  N3  UNL     1      29.892  -9.992 -33.306  0.00  0.00    +0.000 NA
ATOM      9  C14 UNL     1      30.990  -9.797 -32.532  0.00  0.00    +0.000 A 
ATOM     10  C15 UNL     1      31.746 -10.823 -31.962  0.00  0.00    +0.000 A 
ATOM     11  C16 UNL     1      32.863 -10.483 -31.179  0.00  0.00    +0.000 A 
ATOM     12  C17 UNL     1      33.209  -9.132 -30.978  0.00  0.00    +0.000 A 
ATOM     13  C18 UNL     1      32.441  -8.109 -31.557  0.00  0.00    +0.000 A 
ATOM     14  C19 UNL     1      31.340  -8.473 -32.327  0.00  0.00    +0.000 A 
ATOM     15  S1  UNL     1      30.250  -7.489 -33.134  0.00  0.00    +0.000 S 
ENDBRANCH   4   7
BRANCH   1  16
ATOM     16  C1  UNL     1      24.674  -8.420 -37.094  0.00  0.00    +0.000 C 
ATOM     17  N1  UNL     1      24.702  -8.642 -38.376  0.00  0.00    +0.000 NA
BRANCH  16  18
ATOM     18  O1  UNL     1      23.477  -8.020 -36.506  0.00  0.00    +0.000 OA
ATOM     19  H1  UNL     1      23.462  -7.580 -35.593  0.00  0.00    +0.000 HD
ENDBRANCH  16  18
BRANCH  17  20
ATOM     20  N2  UNL     1      25.877  -8.978 -39.063  0.00  0.00    +0.000 NA
ATOM     21  C2  UNL     1      25.839  -9.366 -40.298  0.00  0.00    +0.000 C 
BRANCH  21  22
ATOM     22  C3  UNL     1      27.077  -9.727 -41.017  0.00  0.00    +0.000 A 
ATOM     23  C4  UNL     1      27.338  -9.154 -42.273  0.00  0.00    +0.000 A 
ATOM     24  C5  UNL     1      28.504  -9.483 -42.971  0.00  0.00    +0.000 A 
ATOM     25  C6  UNL     1      29.418 -10.388 -42.423  0.00  0.00    +0.000 A 
ATOM     26  F1  UNL     1      30.547 -10.706 -43.102  0.00  0.00    +0.000 F 
ATOM     27  C7  UNL     1      29.167 -10.963 -41.176  0.00  0.00    +0.000 A 
ATOM     28  C8  UNL     1      28.003 -10.638 -40.472  0.00  0.00    +0.000 A 
ENDBRANCH  21  22
ENDBRANCH  17  20
ENDBRANCH   1  16
TORSDOF 5
ENDMDL
MODEL 3
REMARK VINA RESULT:    -6.422      5.191      9.199
REMARK INTER + INTRA:          -8.673
REMARK INTER:                  -8.135
REMARK INTRA:                  -0.539
REMARK UNBOUND:                -0.563
REMARK  Name = resultss/4CJN/ligands/lig_173_t1.pdb
REMARK  5 active torsions:
REMARK  status: ('A' for Active; 'I' for Inactive)
REMARK    1  A    between atoms: O1_1  and  C1_2
REMARK    2  A    between atoms: C1_2  and  C9_13
REMARK    3  A    between atoms: N1_3  and  N2_4
REMARK    4  A    between atoms: C2_5  and  C3_6
REMARK    5  A    between atoms: C12_16  and  C13_17
REMARK                            x       y       z     vdW  Elec       q    Type
REMARK                         _______ _______ _______ _____ _____    ______ ____
ROOT
ATOM      1  C9  UNL     1      28.972  -8.732 -41.616  0.00  0.00    +0.000 A 
ATOM      2  C10 UNL     1      27.890  -9.547 -41.976  0.00  0.00    +0.000 A 
ATOM      3  C11 UNL     1      27.030  -9.168 -43.010  0.00  0.00    +0.000 A 
ATOM      4  C12 UNL     1      27.226  -7.956 -43.696  0.00  0.00    +0.000 A 
ATOM      5  C20 UNL     1      28.296  -7.127 -43.315  0.00  0.00    +0.000 A 
ATOM      6  C21 UNL     1      29.156  -7.507 -42.280  0.00  0.00    +0.000 A 
ENDROOT
BRANCH   4   7
ATOM      7  C13 UNL     1      26.311  -7.564 -44.793  0.00  0.00    +0.000 A 
ATOM      8  N3  UNL     1      24.958  -7.581 -44.674  0.00  0.00    +0.000 NA
ATOM      9  C14 UNL     1      24.353  -7.180 -45.820  0.00  0.00    +0.000 A 
ATOM     10  C15 UNL     1      22.970  -7.096 -45.996  0.00  0.00    +0.000 A 
ATOM     11  C16 UNL     1      22.472  -6.665 -47.237  0.00  0.00    +0.000 A 
ATOM     12  C17 UNL     1      23.356  -6.325 -48.281  0.00  0.00    +0.000 A 
ATOM     13  C18 UNL     1      24.744  -6.413 -48.093  0.00  0.00    +0.000 A 
ATOM     14  C19 UNL     1      25.211  -6.843 -46.854  0.00  0.00    +0.000 A 
ATOM     15  S1  UNL     1      26.793  -7.046 -46.339  0.00  0.00    +0.000 S 
ENDBRANCH   4   7
BRANCH   1  16
ATOM     16  C1  UNL     1      29.860  -9.148 -40.505  0.00  0.00    +0.000 C 
ATOM     17  N1  UNL     1      30.854  -9.971 -40.674  0.00  0.00    +0.000 NA
BRANCH  16  18
ATOM     18  O1  UNL     1      29.601  -8.659 -39.227  0.00  0.00    +0.000 OA
ATOM     19  H1  UNL     1      29.871  -9.180 -38.401  0.00  0.00    +0.000 HD
ENDBRANCH  16  18
BRANCH  17  20
ATOM     20  N2  UNL     1      31.144 -10.567 -41.909  0.00  0.00    +0.000 NA
ATOM     21  C2  UNL     1      32.367 -10.790 -42.271  0.00  0.00    +0.000 C 
BRANCH  21  22
ATOM     22  C3  UNL     1      32.671 -11.412 -43.575  0.00  0.00    +0.000 A 
ATOM     23  C4  UNL     1      32.272 -12.736 -43.820  0.00  0.00    +0.000 A 
ATOM     24  C5  UNL     1      32.551 -13.343 -45.048  0.00  0.00    +0.000 A 
ATOM     25  C6  UNL     1      33.232 -12.635 -46.042  0.00  0.00    +0.000 A 
ATOM     26  F1  UNL     1      33.502 -13.226 -47.232  0.00  0.00    +0.000 F 
ATOM     27  C7  UNL     1      33.634 -11.317 -45.809  0.00  0.00    +0.000 A 
ATOM     28  C8  UNL     1      33.357 -10.705 -44.583  0.00  0.00    +0.000 A 
ENDBRANCH  21  22
ENDBRANCH  17  20
ENDBRANCH   1  16
TORSDOF 5
ENDMDL
MODEL 4
REMARK VINA RESULT:    -6.296      4.455      6.644
REMARK INTER + INTRA:          -8.515
REMARK INTER:                  -7.845
REMARK INTRA:                  -0.670
REMARK UNBOUND:                -0.563
REMARK  Name = resultss/4CJN/ligands/lig_173_t1.pdb
REMARK  5 active torsions:
REMARK  status: ('A' for Active; 'I' for Inactive)
REMARK    1  A    between atoms: O1_1  and  C1_2
REMARK    2  A    between atoms: C1_2  and  C9_13
REMARK    3  A    between atoms: N1_3  and  N2_4
REMARK    4  A    between atoms: C2_5  and  C3_6
REMARK    5  A    between atoms: C12_16  and  C13_17
REMARK                            x       y       z     vdW  Elec       q    Type
REMARK                         _______ _______ _______ _____ _____    ______ ____
ROOT
ATOM      1  C9  UNL     1      28.089  -9.714 -39.517  0.00  0.00    +0.000 A 
ATOM      2  C10 UNL     1      27.913  -8.343 -39.753  0.00  0.00    +0.000 A 
ATOM      3  C11 UNL     1      26.942  -7.898 -40.654  0.00  0.00    +0.000 A 
ATOM      4  C12 UNL     1      26.137  -8.816 -41.350  0.00  0.00    +0.000 A 
ATOM      5  C20 UNL     1      26.334 -10.191 -41.133  0.00  0.00    +0.000 A 
ATOM      6  C21 UNL     1      27.305 -10.636 -40.231  0.00  0.00    +0.000 A 
ENDROOT
BRANCH   4   7
ATOM      7  C13 UNL     1      25.108  -8.333 -42.301  0.00  0.00    +0.000 A 
ATOM      8  N3  UNL     1      25.349  -8.149 -43.626  0.00  0.00    +0.000 NA
ATOM      9  C14 UNL     1      24.244  -7.701 -44.274  0.00  0.00    +0.000 A 
ATOM     10  C15 UNL     1      24.190  -7.422 -45.641  0.00  0.00    +0.000 A 
ATOM     11  C16 UNL     1      22.980  -6.962 -46.188  0.00  0.00    +0.000 A 
ATOM     12  C17 UNL     1      21.846  -6.788 -45.369  0.00  0.00    +0.000 A 
ATOM     13  C18 UNL     1      21.913  -7.071 -43.995  0.00  0.00    +0.000 A 
ATOM     14  C19 UNL     1      23.124  -7.525 -43.479  0.00  0.00    +0.000 A 
ATOM     15  S1  UNL     1      23.504  -7.940 -41.900  0.00  0.00    +0.000 S 
ENDBRANCH   4   7
BRANCH   1  16
ATOM     16  C1  UNL     1      29.135 -10.162 -38.569  0.00  0.00    +0.000 C 
ATOM     17  N1  UNL     1      28.894 -10.373 -37.307  0.00  0.00    +0.000 NA
BRANCH  16  18
ATOM     18  O1  UNL     1      30.432 -10.337 -39.044  0.00  0.00    +0.000 OA
ATOM     19  H1  UNL     1      30.710 -11.193 -39.509  0.00  0.00    +0.000 HD
ENDBRANCH  16  18
BRANCH  17  20
ATOM     20  N2  UNL     1      27.636 -10.153 -36.729  0.00  0.00    +0.000 NA
ATOM     21  C2  UNL     1      27.421  -9.125 -35.971  0.00  0.00    +0.000 C 
BRANCH  21  22
ATOM     22  C3  UNL     1      26.097  -8.900 -35.357  0.00  0.00    +0.000 A 
ATOM     23  C4  UNL     1      25.823  -9.439 -34.089  0.00  0.00    +0.000 A 
ATOM     24  C5  UNL     1      24.576  -9.238 -33.490  0.00  0.00    +0.000 A 
ATOM     25  C6  UNL     1      23.591  -8.499 -34.152  0.00  0.00    +0.000 A 
ATOM     26  F1  UNL     1      22.382  -8.306 -33.570  0.00  0.00    +0.000 F 
ATOM     27  C7  UNL     1      23.853  -7.959 -35.413  0.00  0.00    +0.000 A 
ATOM     28  C8  UNL     1      25.099  -8.156 -36.017  0.00  0.00    +0.000 A 
ENDBRANCH  21  22
ENDBRANCH  17  20
ENDBRANCH   1  16
TORSDOF 5
ENDMDL
MODEL 5
REMARK VINA RESULT:    -6.241      4.399      9.281
REMARK INTER + INTRA:          -8.446
REMARK INTER:                  -7.826
REMARK INTRA:                  -0.619
REMARK UNBOUND:                -0.563
REMARK  Name = resultss/4CJN/ligands/lig_173_t1.pdb
REMARK  5 active torsions:
REMARK  status: ('A' for Active; 'I' for Inactive)
REMARK    1  A    between atoms: O1_1  and  C1_2
REMARK    2  A    between atoms: C1_2  and  C9_13
REMARK    3  A    between atoms: N1_3  and  N2_4
REMARK    4  A    between atoms: C2_5  and  C3_6
REMARK    5  A    between atoms: C12_16  and  C13_17
REMARK                            x       y       z     vdW  Elec       q    Type
REMARK                         _______ _______ _______ _____ _____    ______ ____
ROOT
ATOM      1  C9  UNL     1      29.411  -9.763 -40.180  0.00  0.00    +0.000 A 
ATOM      2  C10 UNL     1      29.387  -8.554 -39.471  0.00  0.00    +0.000 A 
ATOM      3  C11 UNL     1      28.414  -8.323 -38.495  0.00  0.00    +0.000 A 
ATOM      4  C12 UNL     1      27.433  -9.291 -38.220  0.00  0.00    +0.000 A 
ATOM      5  C20 UNL     1      27.442 -10.493 -38.951  0.00  0.00    +0.000 A 
ATOM      6  C21 UNL     1      28.416 -10.723 -39.927  0.00  0.00    +0.000 A 
ENDROOT
BRANCH   4   7
ATOM      7  C13 UNL     1      26.407  -9.038 -37.181  0.00  0.00    +0.000 A 
ATOM      8  N3  UNL     1      26.487  -9.540 -35.921  0.00  0.00    +0.000 NA
ATOM      9  C14 UNL     1      25.423  -9.163 -35.168  0.00  0.00    +0.000 A 
ATOM     10  C15 UNL     1      25.232  -9.527 -33.833  0.00  0.00    +0.000 A 
ATOM     11  C16 UNL     1      24.083  -9.068 -33.167  0.00  0.00    +0.000 A 
ATOM     12  C17 UNL     1      23.145  -8.256 -33.836  0.00  0.00    +0.000 A 
ATOM     13  C18 UNL     1      23.348  -7.897 -35.178  0.00  0.00    +0.000 A 
ATOM     14  C19 UNL     1      24.495  -8.366 -35.815  0.00  0.00    +0.000 A 
ATOM     15  S1  UNL     1      25.001  -8.107 -37.392  0.00  0.00    +0.000 S 
ENDBRANCH   4   7
BRANCH   1  16
ATOM     16  C1  UNL     1      30.443  -9.978 -41.221  0.00  0.00    +0.000 C 
ATOM     17  N1  UNL     1      30.189  -9.871 -42.493  0.00  0.00    +0.000 NA
BRANCH  16  18
ATOM     18  O1  UNL     1      31.728 -10.334 -40.819  0.00  0.00    +0.000 OA
ATOM     19  H1  UNL     1      32.531  -9.769 -41.067  0.00  0.00    +0.000 HD
ENDBRANCH  16  18
BRANCH  17  20
ATOM     20  N2  UNL     1      28.909  -9.587 -42.989  0.00  0.00    +0.000 NA
ATOM     21  C2  UNL     1      28.549  -8.370 -43.247  0.00  0.00    +0.000 C 
BRANCH  21  22
ATOM     22  C3  UNL     1      27.198  -8.072 -43.763  0.00  0.00    +0.000 A 
ATOM     23  C4  UNL     1      26.078  -8.640 -43.135  0.00  0.00    +0.000 A 
ATOM     24  C5  UNL     1      24.790  -8.371 -43.608  0.00  0.00    +0.000 A 
ATOM     25  C6  UNL     1      24.609  -7.536 -44.715  0.00  0.00    +0.000 A 
ATOM     26  F1  UNL     1      23.360  -7.278 -45.173  0.00  0.00    +0.000 F 
ATOM     27  C7  UNL     1      25.718  -6.968 -45.348  0.00  0.00    +0.000 A 
ATOM     28  C8  UNL     1      27.008  -7.232 -44.878  0.00  0.00    +0.000 A 
ENDBRANCH  21  22
ENDBRANCH  17  20
ENDBRANCH   1  16
TORSDOF 5
ENDMDL
MODEL 6
REMARK VINA RESULT:    -6.200      4.357      5.912
REMARK INTER + INTRA:          -8.393
REMARK INTER:                  -7.823
REMARK INTRA:                  -0.570
REMARK UNBOUND:                -0.563
REMARK  Name = resultss/4CJN/ligands/lig_173_t1.pdb
REMARK  5 active torsions:
REMARK  status: ('A' for Active; 'I' for Inactive)
REMARK    1  A    between atoms: O1_1  and  C1_2
REMARK    2  A    between atoms: C1_2  and  C9_13
REMARK    3  A    between atoms: N1_3  and  N2_4
REMARK    4  A    between atoms: C2_5  and  C3_6
REMARK    5  A    between atoms: C12_16  and  C13_17
REMARK                            x       y       z     vdW  Elec       q    Type
REMARK                         _______ _______ _______ _____ _____    ______ ____
ROOT
ATOM      1  C9  UNL     1      28.745  -9.699 -38.972  0.00  0.00    +0.000 A 
ATOM      2  C10 UNL     1      28.864  -8.365 -39.388  0.00  0.00    +0.000 A 
ATOM      3  C11 UNL     1      28.238  -7.929 -40.558  0.00  0.00    +0.000 A 
ATOM      4  C12 UNL     1      27.492  -8.823 -41.346  0.00  0.00    +0.000 A 
ATOM      5  C20 UNL     1      27.396 -10.166 -40.941  0.00  0.00    +0.000 A 
ATOM      6  C21 UNL     1      28.023 -10.601 -39.770  0.00  0.00    +0.000 A 
ENDROOT
BRANCH   4   7
ATOM      7  C13 UNL     1      26.828  -8.350 -42.583  0.00  0.00    +0.000 A 
ATOM      8  N3  UNL     1      27.513  -7.917 -43.674  0.00  0.00    +0.000 NA
ATOM      9  C14 UNL     1      26.672  -7.539 -44.670  0.00  0.00    +0.000 A 
ATOM     10  C15 UNL     1      27.088  -7.051 -45.911  0.00  0.00    +0.000 A 
ATOM     11  C16 UNL     1      26.111  -6.693 -46.856  0.00  0.00    +0.000 A 
ATOM     12  C17 UNL     1      24.741  -6.827 -46.554  0.00  0.00    +0.000 A 
ATOM     13  C18 UNL     1      24.336  -7.319 -45.303  0.00  0.00    +0.000 A 
ATOM     14  C19 UNL     1      25.323  -7.665 -44.384  0.00  0.00    +0.000 A 
ATOM     15  S1  UNL     1      25.148  -8.273 -42.832  0.00  0.00    +0.000 S 
ENDBRANCH   4   7
BRANCH   1  16
ATOM     16  C1  UNL     1      29.432 -10.140 -37.735  0.00  0.00    +0.000 C 
ATOM     17  N1  UNL     1      28.853 -10.127 -36.569  0.00  0.00    +0.000 NA
BRANCH  16  18
ATOM     18  O1  UNL     1      30.757 -10.559 -37.824  0.00  0.00    +0.000 OA
ATOM     19  H1  UNL     1      31.468 -10.185 -37.207  0.00  0.00    +0.000 HD
ENDBRANCH  16  18
BRANCH  17  20
ATOM     20  N2  UNL     1      27.548  -9.655 -36.376  0.00  0.00    +0.000 NA
ATOM     21  C2  UNL     1      27.054  -9.529 -35.185  0.00  0.00    +0.000 C 
BRANCH  21  22
ATOM     22  C3  UNL     1      25.676  -9.039 -34.984  0.00  0.00    +0.000 A 
ATOM     23  C4  UNL     1      25.018  -8.377 -36.034  0.00  0.00    +0.000 A 
ATOM     24  C5  UNL     1      23.713  -7.904 -35.863  0.00  0.00    +0.000 A 
ATOM     25  C6  UNL     1      23.055  -8.084 -34.643  0.00  0.00    +0.000 A 
ATOM     26  F1  UNL     1      21.791  -7.624 -34.479  0.00  0.00    +0.000 F 
ATOM     27  C7  UNL     1      23.702  -8.740 -33.592  0.00  0.00    +0.000 A 
ATOM     28  C8  UNL     1      25.006  -9.217 -33.757  0.00  0.00    +0.000 A 
ENDBRANCH  21  22
ENDBRANCH  17  20
ENDBRANCH   1  16
TORSDOF 5
ENDMDL
MODEL 7
REMARK VINA RESULT:    -6.123      5.393      8.590
REMARK INTER + INTRA:          -8.296
REMARK INTER:                  -7.727
REMARK INTRA:                  -0.570
REMARK UNBOUND:                -0.563
REMARK  Name = resultss/4CJN/ligands/lig_173_t1.pdb
REMARK  5 active torsions:
REMARK  status: ('A' for Active; 'I' for Inactive)
REMARK    1  A    between atoms: O1_1  and  C1_2
REMARK    2  A    between atoms: C1_2  and  C9_13
REMARK    3  A    between atoms: N1_3  and  N2_4
REMARK    4  A    between atoms: C2_5  and  C3_6
REMARK    5  A    between atoms: C12_16  and  C13_17
REMARK                            x       y       z     vdW  Elec       q    Type
REMARK                         _______ _______ _______ _____ _____    ______ ____
ROOT
ATOM      1  C9  UNL     1      24.650  -8.202 -40.380  0.00  0.00    +0.000 A 
ATOM      2  C10 UNL     1      24.249  -9.241 -41.232  0.00  0.00    +0.000 A 
ATOM      3  C11 UNL     1      23.788  -8.963 -42.522  0.00  0.00    +0.000 A 
ATOM      4  C12 UNL     1      23.704  -7.637 -42.980  0.00  0.00    +0.000 A 
ATOM      5  C20 UNL     1      24.082  -6.594 -42.115  0.00  0.00    +0.000 A 
ATOM      6  C21 UNL     1      24.543  -6.874 -40.825  0.00  0.00    +0.000 A 
ENDROOT
BRANCH   4   7
ATOM      7  C13 UNL     1      23.217  -7.352 -44.351  0.00  0.00    +0.000 A 
ATOM      8  N3  UNL     1      21.900  -7.237 -44.662  0.00  0.00    +0.000 NA
ATOM      9  C14 UNL     1      21.722  -6.977 -45.982  0.00  0.00    +0.000 A 
ATOM     10  C15 UNL     1      20.477  -6.807 -46.592  0.00  0.00    +0.000 A 
ATOM     11  C16 UNL     1      20.433  -6.541 -47.972  0.00  0.00    +0.000 A 
ATOM     12  C17 UNL     1      21.624  -6.448 -48.719  0.00  0.00    +0.000 A 
ATOM     13  C18 UNL     1      22.869  -6.620 -48.094  0.00  0.00    +0.000 A 
ATOM     14  C19 UNL     1      22.885  -6.883 -46.727  0.00  0.00    +0.000 A 
ATOM     15  S1  UNL     1      24.201  -7.131 -45.719  0.00  0.00    +0.000 S 
ENDBRANCH   4   7
BRANCH   1  16
ATOM     16  C1  UNL     1      25.121  -8.522 -39.012  0.00  0.00    +0.000 C 
ATOM     17  N1  UNL     1      26.360  -8.822 -38.750  0.00  0.00    +0.000 NA
BRANCH  16  18
ATOM     18  O1  UNL     1      24.192  -8.527 -37.974  0.00  0.00    +0.000 OA
ATOM     19  H1  UNL     1      23.573  -7.741 -37.821  0.00  0.00    +0.000 HD
ENDBRANCH  16  18
BRANCH  17  20
ATOM     20  N2  UNL     1      27.346  -8.911 -39.742  0.00  0.00    +0.000 NA
ATOM     21  C2  UNL     1      27.577 -10.029 -40.354  0.00  0.00    +0.000 C 
BRANCH  21  22
ATOM     22  C3  UNL     1      28.620 -10.122 -41.394  0.00  0.00    +0.000 A 
ATOM     23  C4  UNL     1      29.536 -11.186 -41.360  0.00  0.00    +0.000 A 
ATOM     24  C5  UNL     1      30.533 -11.292 -42.335  0.00  0.00    +0.000 A 
ATOM     25  C6  UNL     1      30.626 -10.336 -43.351  0.00  0.00    +0.000 A 
ATOM     26  F1  UNL     1      31.594 -10.441 -44.294  0.00  0.00    +0.000 F 
ATOM     27  C7  UNL     1      29.720  -9.274 -43.393  0.00  0.00    +0.000 A 
ATOM     28  C8  UNL     1      28.721  -9.162 -42.421  0.00  0.00    +0.000 A 
ENDBRANCH  21  22
ENDBRANCH  17  20
ENDBRANCH   1  16
TORSDOF 5
ENDMDL
MODEL 8
REMARK VINA RESULT:    -5.672      3.985      6.446
REMARK INTER + INTRA:          -7.726
REMARK INTER:                  -7.201
REMARK INTRA:                  -0.525
REMARK UNBOUND:                -0.563
REMARK  Name = resultss/4CJN/ligands/lig_173_t1.pdb
REMARK  5 active torsions:
REMARK  status: ('A' for Active; 'I' for Inactive)
REMARK    1  A    between atoms: O1_1  and  C1_2
REMARK    2  A    between atoms: C1_2  and  C9_13
REMARK    3  A    between atoms: N1_3  and  N2_4
REMARK    4  A    between atoms: C2_5  and  C3_6
REMARK    5  A    between atoms: C12_16  and  C13_17
REMARK                            x       y       z     vdW  Elec       q    Type
REMARK                         _______ _______ _______ _____ _____    ______ ____
ROOT
ATOM      1  C9  UNL     1      29.100  -9.384 -40.038  0.00  0.00    +0.000 A 
ATOM      2  C10 UNL     1      28.142 -10.340 -40.407  0.00  0.00    +0.000 A 
ATOM      3  C11 UNL     1      27.003  -9.961 -41.122  0.00  0.00    +0.000 A 
ATOM      4  C12 UNL     1      26.790  -8.616 -41.470  0.00  0.00    +0.000 A 
ATOM      5  C20 UNL     1      27.739  -7.656 -41.076  0.00  0.00    +0.000 A 
ATOM      6  C21 UNL     1      28.878  -8.035 -40.360  0.00  0.00    +0.000 A 
ENDROOT
BRANCH   4   7
ATOM      7  C13 UNL     1      25.580  -8.226 -42.231  0.00  0.00    +0.000 A 
ATOM      8  N3  UNL     1      25.594  -7.968 -43.565  0.00  0.00    +0.000 NA
ATOM      9  C14 UNL     1      24.360  -7.630 -44.018  0.00  0.00    +0.000 A 
ATOM     10  C15 UNL     1      24.066  -7.312 -45.346  0.00  0.00    +0.000 A 
ATOM     11  C16 UNL     1      22.743  -6.979 -45.683  0.00  0.00    +0.000 A 
ATOM     12  C17 UNL     1      21.736  -6.969 -44.697  0.00  0.00    +0.000 A 
ATOM     13  C18 UNL     1      22.043  -7.292 -43.365  0.00  0.00    +0.000 A 
ATOM     14  C19 UNL     1      23.362  -7.617 -43.058  0.00  0.00    +0.000 A 
ATOM     15  S1  UNL     1      24.022  -8.040 -41.577  0.00  0.00    +0.000 S 
ENDBRANCH   4   7
BRANCH   1  16
ATOM     16  C1  UNL     1      30.292  -9.808 -39.266  0.00  0.00    +0.000 C 
ATOM     17  N1  UNL     1      30.295  -9.881 -37.967  0.00  0.00    +0.000 NA
BRANCH  16  18
ATOM     18  O1  UNL     1      31.460 -10.113 -39.961  0.00  0.00    +0.000 OA
ATOM     19  H1  UNL     1      32.340  -9.671 -39.727  0.00  0.00    +0.000 HD
ENDBRANCH  16  18
BRANCH  17  20
ATOM     20  N2  UNL     1      29.189  -9.524 -37.184  0.00  0.00    +0.000 NA
ATOM     21  C2  UNL     1      29.199  -9.692 -35.900  0.00  0.00    +0.000 C 
BRANCH  21  22
ATOM     22  C3  UNL     1      28.030  -9.323 -35.078  0.00  0.00    +0.000 A 
ATOM     23  C4  UNL     1      26.837 -10.054 -35.204  0.00  0.00    +0.000 A 
ATOM     24  C5  UNL     1      25.718  -9.720 -34.436  0.00  0.00    +0.000 A 
ATOM     25  C6  UNL     1      25.778  -8.651 -33.536  0.00  0.00    +0.000 A 
ATOM     26  F1  UNL     1      24.692  -8.328 -32.793  0.00  0.00    +0.000 F 
ATOM     27  C7  UNL     1      26.959  -7.917 -33.404  0.00  0.00    +0.000 A 
ATOM     28  C8  UNL     1      28.082  -8.247 -34.169  0.00  0.00    +0.000 A 
ENDBRANCH  21  22
ENDBRANCH  17  20
ENDBRANCH   1  16
TORSDOF 5
ENDMDL
MODEL 9
REMARK VINA RESULT:    -5.036      3.993      8.310
REMARK INTER + INTRA:          -6.923
REMARK INTER:                  -6.313
REMARK INTRA:                  -0.610
REMARK UNBOUND:                -0.563
REMARK  Name = resultss/4CJN/ligands/lig_173_t1.pdb
REMARK  5 active torsions:
REMARK  status: ('A' for Active; 'I' for Inactive)
REMARK    1  A    between atoms: O1_1  and  C1_2
REMARK    2  A    between atoms: C1_2  and  C9_13
REMARK    3  A    between atoms: N1_3  and  N2_4
REMARK    4  A    between atoms: C2_5  and  C3_6
REMARK    5  A    between atoms: C12_16  and  C13_17
REMARK                            x       y       z     vdW  Elec       q    Type
REMARK                         _______ _______ _______ _____ _____    ______ ____
ROOT
ATOM      1  C9  UNL     1      29.100 -10.071 -40.487  0.00  0.00    +0.000 A 
ATOM      2  C10 UNL     1      28.131 -10.698 -39.690  0.00  0.00    +0.000 A 
ATOM      3  C11 UNL     1      28.010 -10.375 -38.336  0.00  0.00    +0.000 A 
ATOM      4  C12 UNL     1      28.866  -9.429 -37.747  0.00  0.00    +0.000 A 
ATOM      5  C20 UNL     1      29.855  -8.821 -38.541  0.00  0.00    +0.000 A 
ATOM      6  C21 UNL     1      29.975  -9.145 -39.895  0.00  0.00    +0.000 A 
ENDROOT
BRANCH   4   7
ATOM      7  C13 UNL     1      28.727  -9.091 -36.311  0.00  0.00    +0.000 A 
ATOM      8  N3  UNL     1      27.637  -8.462 -35.798  0.00  0.00    +0.000 NA
ATOM      9  C14 UNL     1      27.759  -8.268 -34.461  0.00  0.00    +0.000 A 
ATOM     10  C15 UNL     1      26.796  -7.647 -33.662  0.00  0.00    +0.000 A 
ATOM     11  C16 UNL     1      27.048  -7.508 -32.286  0.00  0.00    +0.000 A 
ATOM     12  C17 UNL     1      28.249  -7.989 -31.728  0.00  0.00    +0.000 A 
ATOM     13  C18 UNL     1      29.210  -8.612 -32.541  0.00  0.00    +0.000 A 
ATOM     14  C19 UNL     1      28.936  -8.736 -33.901  0.00  0.00    +0.000 A 
ATOM     15  S1  UNL     1      29.877  -9.424 -35.105  0.00  0.00    +0.000 S 
ENDBRANCH   4   7
BRANCH   1  16
ATOM     16  C1  UNL     1      29.220 -10.442 -41.917  0.00  0.00    +0.000 C 
ATOM     17  N1  UNL     1      28.407  -9.991 -42.828  0.00  0.00    +0.000 NA
BRANCH  16  18
ATOM     18  O1  UNL     1      30.225 -11.329 -42.291  0.00  0.00    +0.000 OA
ATOM     19  H1  UNL     1      30.951 -11.605 -41.640  0.00  0.00    +0.000 HD
ENDBRANCH  16  18
BRANCH  17  20
ATOM     20  N2  UNL     1      27.324  -9.151 -42.530  0.00  0.00    +0.000 NA
ATOM     21  C2  UNL     1      26.117  -9.616 -42.468  0.00  0.00    +0.000 C 
BRANCH  21  22
ATOM     22  C3  UNL     1      24.978  -8.729 -42.162  0.00  0.00    +0.000 A 
ATOM     23  C4  UNL     1      25.116  -7.744 -41.171  0.00  0.00    +0.000 A 
ATOM     24  C5  UNL     1      24.048  -6.894 -40.865  0.00  0.00    +0.000 A 
ATOM     25  C6  UNL     1      22.833  -7.023 -41.544  0.00  0.00    +0.000 A 
ATOM     26  F1  UNL     1      21.799  -6.198 -41.246  0.00  0.00    +0.000 F 
ATOM     27  C7  UNL     1      22.685  -8.000 -42.531  0.00  0.00    +0.000 A 
ATOM     28  C8  UNL     1      23.749  -8.852 -42.842  0.00  0.00    +0.000 A 
ENDBRANCH  21  22
ENDBRANCH  17  20
ENDBRANCH   1  16
TORSDOF 5
ENDMDL
