MODEL 1
REMARK VINA RESULT:    -5.845      0.000      0.000
REMARK INTER + INTRA:         -11.729
REMARK INTER:                  -9.604
REMARK INTRA:                  -2.125
REMARK UNBOUND:                -2.125
REMARK  Name = resultss/4CJN/ligands/lig_297_t2.pdb
REMARK  19 active torsions:
REMARK  status: ('A' for Active; 'I' for Inactive)
REMARK    1  A    between atoms: C1_1  and  O1_2
REMARK    2  A    between atoms: O1_2  and  C2_3
REMARK    3  A    between atoms: C4_5  and  O2_6
REMARK    4  A    between atoms: C6_8  and  O3_9
REMARK    5  A    between atoms: C9_13  and  C10_14
REMARK    6  A    between atoms: C11_16  and  O6_17
REMARK    7  A    between atoms: C12_18  and  O7_19
REMARK    8  A    between atoms: C13_20  and  O8_21
REMARK    9  A    between atoms: O8_21  and  C14_22
REMARK   10  A    between atoms: C15_24  and  C16_25
REMARK   11  A    between atoms: C17_26  and  O10_27
REMARK   12  A    between atoms: C18_28  and  O11_29
REMARK   13  A    between atoms: C19_30  and  O12_31
REMARK   14  A    between atoms: C20_32  and  O13_33
REMARK   15  A    between atoms: O13_33  and  C21_34
REMARK   16  A    between atoms: C22_36  and  C23_37
REMARK   17  A    between atoms: C24_38  and  O15_39
REMARK   18  A    between atoms: C25_40  and  O16_41
REMARK   19  A    between atoms: C26_42  and  O17_43
REMARK                            x       y       z     vdW  Elec       q    Type
REMARK                         _______ _______ _______ _____ _____    ______ ____
ROOT
ATOM      1  C10 UNL     1      26.294  -6.967 -38.407  0.00  0.00    +0.000 C 
ATOM      2  O5  UNL     1      25.458  -6.187 -37.561  0.00  0.00    +0.000 OA
ATOM      3  C11 UNL     1      24.705  -6.958 -36.639  0.00  0.00    +0.000 C 
ATOM      4  C12 UNL     1      25.628  -7.700 -35.629  0.00  0.00    +0.000 C 
ATOM      5  C13 UNL     1      27.022  -8.029 -36.226  0.00  0.00    +0.000 C 
ATOM      6  C20 UNL     1      26.902  -8.244 -37.742  0.00  0.00    +0.000 C 
ENDROOT
BRANCH   1  15
ATOM      7  C2  UNL     1      24.300  -7.202 -47.063  0.00  0.00    +0.000 A 
ATOM      8  C3  UNL     1      25.671  -6.941 -47.096  0.00  0.00    +0.000 A 
ATOM      9  C4  UNL     1      26.437  -6.914 -45.922  0.00  0.00    +0.000 A 
ATOM     10  C5  UNL     1      25.811  -7.126 -44.668  0.00  0.00    +0.000 A 
ATOM     11  C6  UNL     1      26.543  -7.151 -43.458  0.00  0.00    +0.000 A 
ATOM     12  C7  UNL     1      25.843  -7.211 -42.230  0.00  0.00    +0.000 A 
ATOM     13  C8  UNL     1      26.427  -7.070 -40.949  0.00  0.00    +0.000 A 
ATOM     14  O4  UNL     1      27.658  -6.814 -40.834  0.00  0.00    +0.000 OA
ATOM     15  C9  UNL     1      25.626  -7.163 -39.772  0.00  0.00    +0.000 A 
ATOM     16  C27 UNL     1      24.226  -7.298 -39.904  0.00  0.00    +0.000 A 
ATOM     17  C28 UNL     1      23.619  -7.420 -41.148  0.00  0.00    +0.000 A 
ATOM     18  C29 UNL     1      24.372  -7.368 -42.308  0.00  0.00    +0.000 A 
ATOM     19  O18 UNL     1      23.763  -7.426 -43.478  0.00  0.00    +0.000 OA
ATOM     20  C30 UNL     1      24.407  -7.311 -44.635  0.00  0.00    +0.000 A 
ATOM     21  C31 UNL     1      23.664  -7.352 -45.820  0.00  0.00    +0.000 A 
BRANCH  11  22
ATOM     22  O3  UNL     1      27.941  -7.138 -43.512  0.00  0.00    +0.000 OA
ATOM     23  H6  UNL     1      28.474  -7.640 -44.217  0.00  0.00    +0.000 HD
ENDBRANCH  11  22
BRANCH   7  25
ATOM     24  C1  UNL     1      22.397  -6.615 -48.574  0.00  0.00    +0.000 C 
ATOM     25  O1  UNL     1      23.612  -7.308 -48.277  0.00  0.00    +0.000 OA
ENDBRANCH   7  25
BRANCH   9  26
ATOM     26  O2  UNL     1      27.801  -6.618 -46.019  0.00  0.00    +0.000 OA
ATOM     27  H5  UNL     1      28.086  -5.778 -46.504  0.00  0.00    +0.000 HD
ENDBRANCH   9  26
ENDBRANCH   1  15
BRANCH   3  28
ATOM     28  O6  UNL     1      23.882  -7.877 -37.323  0.00  0.00    +0.000 OA
ATOM     29  H9  UNL     1      23.271  -8.283 -36.652  0.00  0.00    +0.000 HD
ENDBRANCH   3  28
BRANCH   4  30
ATOM     30  O7  UNL     1      25.754  -6.980 -34.425  0.00  0.00    +0.000 OA
ATOM     31  H11 UNL     1      25.897  -6.022 -34.646  0.00  0.00    +0.000 HD
ENDBRANCH   4  30
BRANCH   5  32
ATOM     32  O8  UNL     1      27.937  -6.966 -35.976  0.00  0.00    +0.000 OA
BRANCH  32  33
ATOM     33  C14 UNL     1      29.068  -7.416 -35.255  0.00  0.00    +0.000 C 
ATOM     34  O9  UNL     1      28.875  -8.765 -34.856  0.00  0.00    +0.000 OA
ATOM     35  C15 UNL     1      30.017  -9.298 -34.201  0.00  0.00    +0.000 C 
ATOM     36  C16 UNL     1      31.182  -9.562 -35.177  0.00  0.00    +0.000 C 
ATOM     37  C17 UNL     1      30.395  -8.482 -32.932  0.00  0.00    +0.000 C 
ATOM     38  C18 UNL     1      30.480  -6.973 -33.212  0.00  0.00    +0.000 C 
ATOM     39  C19 UNL     1      29.270  -6.496 -34.037  0.00  0.00    +0.000 C 
BRANCH  37  40
ATOM     40  O10 UNL     1      31.608  -8.935 -32.393  0.00  0.00    +0.000 OA
ATOM     41  H19 UNL     1      31.882  -8.271 -31.708  0.00  0.00    +0.000 HD
ENDBRANCH  37  40
BRANCH  38  42
ATOM     42  O11 UNL     1      31.668  -6.693 -33.908  0.00  0.00    +0.000 OA
ATOM     43  H21 UNL     1      31.805  -7.437 -34.552  0.00  0.00    +0.000 HD
ENDBRANCH  38  42
BRANCH  39  44
ATOM     44  O12 UNL     1      28.112  -6.407 -33.235  0.00  0.00    +0.000 OA
ATOM     45  H23 UNL     1      27.312  -6.468 -33.829  0.00  0.00    +0.000 HD
ENDBRANCH  39  44
ENDBRANCH  32  33
ENDBRANCH   5  32
BRANCH   6  46
ATOM     46  O13 UNL     1      28.189  -8.465 -38.296  0.00  0.00    +0.000 OA
BRANCH  46  47
ATOM     47  C21 UNL     1      28.561  -9.841 -38.298  0.00  0.00    +0.000 C 
ATOM     48  O14 UNL     1      29.779 -10.002 -39.009  0.00  0.00    +0.000 OA
ATOM     49  C22 UNL     1      29.671  -9.542 -40.352  0.00  0.00    +0.000 C 
ATOM     50  C23 UNL     1      31.048  -9.654 -40.998  0.00  0.00    +0.000 C 
ATOM     51  C24 UNL     1      28.634 -10.380 -41.142  0.00  0.00    +0.000 C 
ATOM     52  C25 UNL     1      27.275 -10.352 -40.416  0.00  0.00    +0.000 C 
ATOM     53  C26 UNL     1      27.447 -10.713 -38.932  0.00  0.00    +0.000 C 
BRANCH  51  54
ATOM     54  O15 UNL     1      28.498  -9.915 -42.463  0.00  0.00    +0.000 OA
ATOM     55  H31 UNL     1      27.939  -9.099 -42.432  0.00  0.00    +0.000 HD
ENDBRANCH  51  54
BRANCH  52  56
ATOM     56  O16 UNL     1      26.343 -11.205 -41.037  0.00  0.00    +0.000 OA
ATOM     57  H33 UNL     1      26.673 -12.139 -40.952  0.00  0.00    +0.000 HD
ENDBRANCH  52  56
BRANCH  53  58
ATOM     58  O17 UNL     1      27.704 -12.089 -38.767  0.00  0.00    +0.000 OA
ATOM     59  H35 UNL     1      27.090 -12.443 -38.067  0.00  0.00    +0.000 HD
ENDBRANCH  53  58
ENDBRANCH  46  47
ENDBRANCH   6  46
TORSDOF 16
ENDMDL
MODEL 2
REMARK VINA RESULT:    -5.440      2.049      9.662
REMARK INTER + INTRA:         -11.064
REMARK INTER:                  -9.189
REMARK INTRA:                  -1.875
REMARK UNBOUND:                -2.125
REMARK  Name = resultss/4CJN/ligands/lig_297_t2.pdb
REMARK  19 active torsions:
REMARK  status: ('A' for Active; 'I' for Inactive)
REMARK    1  A    between atoms: C1_1  and  O1_2
REMARK    2  A    between atoms: O1_2  and  C2_3
REMARK    3  A    between atoms: C4_5  and  O2_6
REMARK    4  A    between atoms: C6_8  and  O3_9
REMARK    5  A    between atoms: C9_13  and  C10_14
REMARK    6  A    between atoms: C11_16  and  O6_17
REMARK    7  A    between atoms: C12_18  and  O7_19
REMARK    8  A    between atoms: C13_20  and  O8_21
REMARK    9  A    between atoms: O8_21  and  C14_22
REMARK   10  A    between atoms: C15_24  and  C16_25
REMARK   11  A    between atoms: C17_26  and  O10_27
REMARK   12  A    between atoms: C18_28  and  O11_29
REMARK   13  A    between atoms: C19_30  and  O12_31
REMARK   14  A    between atoms: C20_32  and  O13_33
REMARK   15  A    between atoms: O13_33  and  C21_34
REMARK   16  A    between atoms: C22_36  and  C23_37
REMARK   17  A    between atoms: C24_38  and  O15_39
REMARK   18  A    between atoms: C25_40  and  O16_41
REMARK   19  A    between atoms: C26_42  and  O17_43
REMARK                            x       y       z     vdW  Elec       q    Type
REMARK                         _______ _______ _______ _____ _____    ______ ____
ROOT
ATOM      1  C10 UNL     1      25.980  -8.454 -37.287  0.00  0.00    +0.000 C 
ATOM      2  O5  UNL     1      24.712  -8.048 -36.786  0.00  0.00    +0.000 OA
ATOM      3  C11 UNL     1      24.533  -6.642 -36.771  0.00  0.00    +0.000 C 
ATOM      4  C12 UNL     1      24.546  -6.049 -38.209  0.00  0.00    +0.000 C 
ATOM      5  C13 UNL     1      25.411  -6.884 -39.190  0.00  0.00    +0.000 C 
ATOM      6  C20 UNL     1      26.561  -7.557 -38.427  0.00  0.00    +0.000 C 
ENDROOT
BRANCH   1  15
ATOM      7  C2  UNL     1      32.714  -8.755 -31.496  0.00  0.00    +0.000 A 
ATOM      8  C3  UNL     1      32.981  -7.566 -32.179  0.00  0.00    +0.000 A 
ATOM      9  C4  UNL     1      32.097  -7.065 -33.143  0.00  0.00    +0.000 A 
ATOM     10  C5  UNL     1      30.919  -7.786 -33.462  0.00  0.00    +0.000 A 
ATOM     11  C6  UNL     1      29.972  -7.305 -34.396  0.00  0.00    +0.000 A 
ATOM     12  C7  UNL     1      28.899  -8.142 -34.785  0.00  0.00    +0.000 A 
ATOM     13  C8  UNL     1      27.983  -7.865 -35.827  0.00  0.00    +0.000 A 
ATOM     14  O4  UNL     1      28.119  -6.830 -36.537  0.00  0.00    +0.000 OA
ATOM     15  C9  UNL     1      26.927  -8.776 -36.125  0.00  0.00    +0.000 A 
ATOM     16  C27 UNL     1      26.865 -10.006 -35.433  0.00  0.00    +0.000 A 
ATOM     17  C28 UNL     1      27.761 -10.316 -34.417  0.00  0.00    +0.000 A 
ATOM     18  C29 UNL     1      28.777  -9.439 -34.080  0.00  0.00    +0.000 A 
ATOM     19  O18 UNL     1      29.650  -9.786 -33.152  0.00  0.00    +0.000 OA
ATOM     20  C30 UNL     1      30.694  -9.031 -32.824  0.00  0.00    +0.000 A 
ATOM     21  C31 UNL     1      31.581  -9.505 -31.851  0.00  0.00    +0.000 A 
BRANCH  11  22
ATOM     22  O3  UNL     1      30.112  -6.004 -34.893  0.00  0.00    +0.000 OA
ATOM     23  H6  UNL     1      29.427  -5.272 -34.731  0.00  0.00    +0.000 HD
ENDBRANCH  11  22
BRANCH   7  25
ATOM     24  C1  UNL     1      34.145  -8.260 -29.507  0.00  0.00    +0.000 C 
ATOM     25  O1  UNL     1      33.590  -9.150 -30.480  0.00  0.00    +0.000 OA
ENDBRANCH   7  25
BRANCH   9  26
ATOM     26  O2  UNL     1      32.434  -5.883 -33.812  0.00  0.00    +0.000 OA
ATOM     27  H5  UNL     1      32.349  -5.002 -33.323  0.00  0.00    +0.000 HD
ENDBRANCH   9  26
ENDBRANCH   1  15
BRANCH   3  28
ATOM     28  O6  UNL     1      25.522  -6.028 -35.974  0.00  0.00    +0.000 OA
ATOM     29  H9  UNL     1      25.638  -5.099 -36.310  0.00  0.00    +0.000 HD
ENDBRANCH   3  28
BRANCH   4  30
ATOM     30  O7  UNL     1      23.238  -5.883 -38.707  0.00  0.00    +0.000 OA
ATOM     31  H11 UNL     1      22.601  -5.979 -37.951  0.00  0.00    +0.000 HD
ENDBRANCH   4  30
BRANCH   5  32
ATOM     32  O8  UNL     1      24.622  -7.886 -39.824  0.00  0.00    +0.000 OA
BRANCH  32  33
ATOM     33  C14 UNL     1      24.600  -7.716 -41.228  0.00  0.00    +0.000 C 
ATOM     34  O9  UNL     1      25.128  -6.441 -41.564  0.00  0.00    +0.000 OA
ATOM     35  C15 UNL     1      25.210  -6.249 -42.969  0.00  0.00    +0.000 C 
ATOM     36  C16 UNL     1      26.337  -7.085 -43.609  0.00  0.00    +0.000 C 
ATOM     37  C17 UNL     1      23.822  -6.379 -43.657  0.00  0.00    +0.000 C 
ATOM     38  C18 UNL     1      23.083  -7.661 -43.243  0.00  0.00    +0.000 C 
ATOM     39  C19 UNL     1      23.148  -7.867 -41.718  0.00  0.00    +0.000 C 
BRANCH  37  40
ATOM     40  O10 UNL     1      23.955  -6.336 -45.053  0.00  0.00    +0.000 OA
ATOM     41  H19 UNL     1      23.759  -5.402 -45.329  0.00  0.00    +0.000 HD
ENDBRANCH  37  40
BRANCH  38  42
ATOM     42  O11 UNL     1      23.659  -8.764 -43.895  0.00  0.00    +0.000 OA
ATOM     43  H21 UNL     1      23.225  -8.830 -44.786  0.00  0.00    +0.000 HD
ENDBRANCH  38  42
BRANCH  39  44
ATOM     44  O12 UNL     1      22.264  -6.994 -41.049  0.00  0.00    +0.000 OA
ATOM     45  H23 UNL     1      22.733  -6.126 -40.896  0.00  0.00    +0.000 HD
ENDBRANCH  39  44
ENDBRANCH  32  33
ENDBRANCH   5  32
BRANCH   6  46
ATOM     46  O13 UNL     1      27.301  -8.383 -39.311  0.00  0.00    +0.000 OA
BRANCH  46  47
ATOM     47  C21 UNL     1      28.492  -7.758 -39.784  0.00  0.00    +0.000 C 
ATOM     48  O14 UNL     1      28.619  -7.974 -41.181  0.00  0.00    +0.000 OA
ATOM     49  C22 UNL     1      28.659  -9.362 -41.498  0.00  0.00    +0.000 C 
ATOM     50  C23 UNL     1      28.685  -9.495 -43.017  0.00  0.00    +0.000 C 
ATOM     51  C24 UNL     1      29.907 -10.036 -40.875  0.00  0.00    +0.000 C 
ATOM     52  C25 UNL     1      29.928  -9.796 -39.353  0.00  0.00    +0.000 C 
ATOM     53  C26 UNL     1      29.737  -8.303 -39.038  0.00  0.00    +0.000 C 
BRANCH  51  54
ATOM     54  O15 UNL     1      29.941 -11.414 -41.158  0.00  0.00    +0.000 OA
ATOM     55  H31 UNL     1      30.391 -11.524 -42.033  0.00  0.00    +0.000 HD
ENDBRANCH  51  54
BRANCH  52  56
ATOM     56  O16 UNL     1      31.113 -10.286 -38.772  0.00  0.00    +0.000 OA
ATOM     57  H33 UNL     1      31.868  -9.720 -39.085  0.00  0.00    +0.000 HD
ENDBRANCH  52  56
BRANCH  53  58
ATOM     58  O17 UNL     1      30.896  -7.564 -39.347  0.00  0.00    +0.000 OA
ATOM     59  H35 UNL     1      31.684  -8.171 -39.283  0.00  0.00    +0.000 HD
ENDBRANCH  53  58
ENDBRANCH  46  47
ENDBRANCH   6  46
TORSDOF 16
ENDMDL
MODEL 3
REMARK VINA RESULT:    -4.768      2.463      4.109
REMARK INTER + INTRA:          -9.960
REMARK INTER:                  -8.216
REMARK INTRA:                  -1.744
REMARK UNBOUND:                -2.125
REMARK  Name = resultss/4CJN/ligands/lig_297_t2.pdb
REMARK  19 active torsions:
REMARK  status: ('A' for Active; 'I' for Inactive)
REMARK    1  A    between atoms: C1_1  and  O1_2
REMARK    2  A    between atoms: O1_2  and  C2_3
REMARK    3  A    between atoms: C4_5  and  O2_6
REMARK    4  A    between atoms: C6_8  and  O3_9
REMARK    5  A    between atoms: C9_13  and  C10_14
REMARK    6  A    between atoms: C11_16  and  O6_17
REMARK    7  A    between atoms: C12_18  and  O7_19
REMARK    8  A    between atoms: C13_20  and  O8_21
REMARK    9  A    between atoms: O8_21  and  C14_22
REMARK   10  A    between atoms: C15_24  and  C16_25
REMARK   11  A    between atoms: C17_26  and  O10_27
REMARK   12  A    between atoms: C18_28  and  O11_29
REMARK   13  A    between atoms: C19_30  and  O12_31
REMARK   14  A    between atoms: C20_32  and  O13_33
REMARK   15  A    between atoms: O13_33  and  C21_34
REMARK   16  A    between atoms: C22_36  and  C23_37
REMARK   17  A    between atoms: C24_38  and  O15_39
REMARK   18  A    between atoms: C25_40  and  O16_41
REMARK   19  A    between atoms: C26_42  and  O17_43
REMARK                            x       y       z     vdW  Elec       q    Type
REMARK                         _______ _______ _______ _____ _____    ______ ____
ROOT
ATOM      1  C10 UNL     1      28.443  -7.958 -37.107  0.00  0.00    +0.000 C 
ATOM      2  O5  UNL     1      27.479  -8.189 -36.086  0.00  0.00    +0.000 OA
ATOM      3  C11 UNL     1      27.414  -9.540 -35.663  0.00  0.00    +0.000 C 
ATOM      4  C12 UNL     1      28.744  -9.995 -34.995  0.00  0.00    +0.000 C 
ATOM      5  C13 UNL     1      29.977  -9.233 -35.546  0.00  0.00    +0.000 C 
ATOM      6  C20 UNL     1      29.733  -8.834 -37.010  0.00  0.00    +0.000 C 
ENDROOT
BRANCH   1  15
ATOM      7  C2  UNL     1      22.661  -7.313 -43.823  0.00  0.00    +0.000 A 
ATOM      8  C3  UNL     1      21.910  -6.815 -42.756  0.00  0.00    +0.000 A 
ATOM      9  C4  UNL     1      22.476  -6.642 -41.485  0.00  0.00    +0.000 A 
ATOM     10  C5  UNL     1      23.828  -7.003 -41.261  0.00  0.00    +0.000 A 
ATOM     11  C6  UNL     1      24.460  -6.810 -40.011  0.00  0.00    +0.000 A 
ATOM     12  C7  UNL     1      25.759  -7.333 -39.806  0.00  0.00    +0.000 A 
ATOM     13  C8  UNL     1      26.440  -7.367 -38.566  0.00  0.00    +0.000 A 
ATOM     14  O4  UNL     1      25.870  -6.963 -37.514  0.00  0.00    +0.000 OA
ATOM     15  C9  UNL     1      27.758  -7.907 -38.477  0.00  0.00    +0.000 A 
ATOM     16  C27 UNL     1      28.337  -8.496 -39.622  0.00  0.00    +0.000 A 
ATOM     17  C28 UNL     1      27.687  -8.496 -40.850  0.00  0.00    +0.000 A 
ATOM     18  C29 UNL     1      26.421  -7.951 -40.978  0.00  0.00    +0.000 A 
ATOM     19  O18 UNL     1      25.802  -8.017 -42.142  0.00  0.00    +0.000 OA
ATOM     20  C30 UNL     1      24.561  -7.582 -42.327  0.00  0.00    +0.000 A 
ATOM     21  C31 UNL     1      23.982  -7.730 -43.592  0.00  0.00    +0.000 A 
BRANCH  11  22
ATOM     22  O3  UNL     1      23.790  -6.086 -39.018  0.00  0.00    +0.000 OA
ATOM     23  H6  UNL     1      23.855  -5.076 -38.928  0.00  0.00    +0.000 HD
ENDBRANCH  11  22
BRANCH   7  25
ATOM     24  C1  UNL     1      22.761  -7.153 -46.316  0.00  0.00    +0.000 C 
ATOM     25  O1  UNL     1      22.063  -7.373 -45.087  0.00  0.00    +0.000 OA
ENDBRANCH   7  25
BRANCH   9  26
ATOM     26  O2  UNL     1      21.664  -6.166 -40.450  0.00  0.00    +0.000 OA
ATOM     27  H5  UNL     1      20.755  -5.785 -40.676  0.00  0.00    +0.000 HD
ENDBRANCH   9  26
ENDBRANCH   1  15
BRANCH   3  28
ATOM     28  O6  UNL     1      27.093 -10.381 -36.750  0.00  0.00    +0.000 OA
ATOM     29  H9  UNL     1      27.896 -10.428 -37.335  0.00  0.00    +0.000 HD
ENDBRANCH   3  28
BRANCH   4  30
ATOM     30  O7  UNL     1      28.674  -9.892 -33.592  0.00  0.00    +0.000 OA
ATOM     31  H11 UNL     1      28.386  -8.970 -33.359  0.00  0.00    +0.000 HD
ENDBRANCH   4  30
BRANCH   5  32
ATOM     32  O8  UNL     1      30.224  -8.058 -34.778  0.00  0.00    +0.000 OA
BRANCH  32  33
ATOM     33  C14 UNL     1      31.389  -8.194 -33.986  0.00  0.00    +0.000 C 
ATOM     34  O9  UNL     1      31.681  -9.571 -33.796  0.00  0.00    +0.000 OA
ATOM     35  C15 UNL     1      32.890  -9.767 -33.078  0.00  0.00    +0.000 C 
ATOM     36  C16 UNL     1      34.135  -9.434 -33.925  0.00  0.00    +0.000 C 
ATOM     37  C17 UNL     1      32.850  -9.098 -31.675  0.00  0.00    +0.000 C 
ATOM     38  C18 UNL     1      32.392  -7.632 -31.740  0.00  0.00    +0.000 C 
ATOM     39  C19 UNL     1      31.152  -7.482 -32.640  0.00  0.00    +0.000 C 
BRANCH  37  40
ATOM     40  O10 UNL     1      34.105  -9.177 -31.052  0.00  0.00    +0.000 OA
ATOM     41  H19 UNL     1      34.648  -9.814 -31.586  0.00  0.00    +0.000 HD
ENDBRANCH  37  40
BRANCH  38  42
ATOM     42  O11 UNL     1      33.438  -6.837 -32.237  0.00  0.00    +0.000 OA
ATOM     43  H21 UNL     1      33.129  -5.895 -32.190  0.00  0.00    +0.000 HD
ENDBRANCH  38  42
BRANCH  39  44
ATOM     44  O12 UNL     1      29.990  -7.946 -31.987  0.00  0.00    +0.000 OA
ATOM     45  H23 UNL     1      30.143  -8.890 -31.703  0.00  0.00    +0.000 HD
ENDBRANCH  39  44
ENDBRANCH  32  33
ENDBRANCH   5  32
BRANCH   6  46
ATOM     46  O13 UNL     1      30.829  -8.068 -37.484  0.00  0.00    +0.000 OA
BRANCH  46  47
ATOM     47  C21 UNL     1      32.067  -8.771 -37.410  0.00  0.00    +0.000 C 
ATOM     48  O14 UNL     1      33.127  -7.846 -37.219  0.00  0.00    +0.000 OA
ATOM     49  C22 UNL     1      33.191  -6.892 -38.275  0.00  0.00    +0.000 C 
ATOM     50  C23 UNL     1      34.281  -5.883 -37.929  0.00  0.00    +0.000 C 
ATOM     51  C24 UNL     1      33.502  -7.583 -39.626  0.00  0.00    +0.000 C 
ATOM     52  C25 UNL     1      32.457  -8.679 -39.908  0.00  0.00    +0.000 C 
ATOM     53  C26 UNL     1      32.306  -9.608 -38.693  0.00  0.00    +0.000 C 
BRANCH  51  54
ATOM     54  O15 UNL     1      33.538  -6.652 -40.681  0.00  0.00    +0.000 OA
ATOM     55  H31 UNL     1      32.724  -6.792 -41.226  0.00  0.00    +0.000 HD
ENDBRANCH  51  54
BRANCH  52  56
ATOM     56  O16 UNL     1      32.780  -9.412 -41.065  0.00  0.00    +0.000 OA
ATOM     57  H33 UNL     1      32.207 -10.223 -41.089  0.00  0.00    +0.000 HD
ENDBRANCH  52  56
BRANCH  53  58
ATOM     58  O17 UNL     1      33.421 -10.460 -38.561  0.00  0.00    +0.000 OA
ATOM     59  H35 UNL     1      33.597 -10.888 -39.443  0.00  0.00    +0.000 HD
ENDBRANCH  53  58
ENDBRANCH  46  47
ENDBRANCH   6  46
TORSDOF 16
ENDMDL
MODEL 4
REMARK VINA RESULT:    -4.566      2.427      3.469
REMARK INTER + INTRA:          -9.628
REMARK INTER:                  -8.665
REMARK INTRA:                  -0.962
REMARK UNBOUND:                -2.125
REMARK  Name = resultss/4CJN/ligands/lig_297_t2.pdb
REMARK  19 active torsions:
REMARK  status: ('A' for Active; 'I' for Inactive)
REMARK    1  A    between atoms: C1_1  and  O1_2
REMARK    2  A    between atoms: O1_2  and  C2_3
REMARK    3  A    between atoms: C4_5  and  O2_6
REMARK    4  A    between atoms: C6_8  and  O3_9
REMARK    5  A    between atoms: C9_13  and  C10_14
REMARK    6  A    between atoms: C11_16  and  O6_17
REMARK    7  A    between atoms: C12_18  and  O7_19
REMARK    8  A    between atoms: C13_20  and  O8_21
REMARK    9  A    between atoms: O8_21  and  C14_22
REMARK   10  A    between atoms: C15_24  and  C16_25
REMARK   11  A    between atoms: C17_26  and  O10_27
REMARK   12  A    between atoms: C18_28  and  O11_29
REMARK   13  A    between atoms: C19_30  and  O12_31
REMARK   14  A    between atoms: C20_32  and  O13_33
REMARK   15  A    between atoms: O13_33  and  C21_34
REMARK   16  A    between atoms: C22_36  and  C23_37
REMARK   17  A    between atoms: C24_38  and  O15_39
REMARK   18  A    between atoms: C25_40  and  O16_41
REMARK   19  A    between atoms: C26_42  and  O17_43
REMARK                            x       y       z     vdW  Elec       q    Type
REMARK                         _______ _______ _______ _____ _____    ______ ____
ROOT
ATOM      1  C10 UNL     1      27.242  -7.575 -36.028  0.00  0.00    +0.000 C 
ATOM      2  O5  UNL     1      26.663  -7.967 -34.789  0.00  0.00    +0.000 OA
ATOM      3  C11 UNL     1      26.668  -9.370 -34.579  0.00  0.00    +0.000 C 
ATOM      4  C12 UNL     1      28.118  -9.926 -34.479  0.00  0.00    +0.000 C 
ATOM      5  C13 UNL     1      29.137  -9.086 -35.292  0.00  0.00    +0.000 C 
ATOM      6  C20 UNL     1      28.440  -8.456 -36.508  0.00  0.00    +0.000 C 
ENDROOT
BRANCH   1  15
ATOM      7  C2  UNL     1      22.078  -7.365 -43.257  0.00  0.00    +0.000 A 
ATOM      8  C3  UNL     1      22.903  -8.458 -43.531  0.00  0.00    +0.000 A 
ATOM      9  C4  UNL     1      23.832  -8.923 -42.591  0.00  0.00    +0.000 A 
ATOM     10  C5  UNL     1      23.966  -8.261 -41.345  0.00  0.00    +0.000 A 
ATOM     11  C6  UNL     1      24.858  -8.714 -40.345  0.00  0.00    +0.000 A 
ATOM     12  C7  UNL     1      25.058  -7.923 -39.189  0.00  0.00    +0.000 A 
ATOM     13  C8  UNL     1      26.038  -8.160 -38.196  0.00  0.00    +0.000 A 
ATOM     14  O4  UNL     1      26.862  -9.108 -38.327  0.00  0.00    +0.000 OA
ATOM     15  C9  UNL     1      26.142  -7.303 -37.060  0.00  0.00    +0.000 A 
ATOM     16  C27 UNL     1      25.321  -6.156 -36.988  0.00  0.00    +0.000 A 
ATOM     17  C28 UNL     1      24.363  -5.883 -37.957  0.00  0.00    +0.000 A 
ATOM     18  C29 UNL     1      24.213  -6.714 -39.054  0.00  0.00    +0.000 A 
ATOM     19  O18 UNL     1      23.335  -6.399 -39.989  0.00  0.00    +0.000 OA
ATOM     20  C30 UNL     1      23.183  -7.105 -41.105  0.00  0.00    +0.000 A 
ATOM     21  C31 UNL     1      22.249  -6.667 -42.050  0.00  0.00    +0.000 A 
BRANCH  11  22
ATOM     22  O3  UNL     1      25.499  -9.946 -40.518  0.00  0.00    +0.000 OA
ATOM     23  H6  UNL     1      25.038 -10.838 -40.364  0.00  0.00    +0.000 HD
ENDBRANCH  11  22
BRANCH   7  25
ATOM     24  C1  UNL     1      21.401  -6.627 -45.547  0.00  0.00    +0.000 C 
ATOM     25  O1  UNL     1      21.108  -7.009 -44.200  0.00  0.00    +0.000 OA
ENDBRANCH   7  25
BRANCH   9  26
ATOM     26  O2  UNL     1      24.650 -10.005 -42.936  0.00  0.00    +0.000 OA
ATOM     27  H5  UNL     1      25.528 -10.129 -42.450  0.00  0.00    +0.000 HD
ENDBRANCH   9  26
ENDBRANCH   1  15
BRANCH   3  28
ATOM     28  O6  UNL     1      25.958 -10.024 -35.607  0.00  0.00    +0.000 OA
ATOM     29  H9  UNL     1      25.303  -9.372 -35.976  0.00  0.00    +0.000 HD
ENDBRANCH   3  28
BRANCH   4  30
ATOM     30  O7  UNL     1      28.527 -10.052 -33.136  0.00  0.00    +0.000 OA
ATOM     31  H11 UNL     1      27.996 -10.778 -32.714  0.00  0.00    +0.000 HD
ENDBRANCH   4  30
BRANCH   5  32
ATOM     32  O8  UNL     1      29.691  -8.051 -34.484  0.00  0.00    +0.000 OA
BRANCH  32  33
ATOM     33  C14 UNL     1      30.938  -8.434 -33.936  0.00  0.00    +0.000 C 
ATOM     34  O9  UNL     1      30.796  -8.675 -32.544  0.00  0.00    +0.000 OA
ATOM     35  C15 UNL     1      32.000  -9.146 -31.957  0.00  0.00    +0.000 C 
ATOM     36  C16 UNL     1      32.318 -10.600 -32.360  0.00  0.00    +0.000 C 
ATOM     37  C17 UNL     1      33.171  -8.139 -32.142  0.00  0.00    +0.000 C 
ATOM     38  C18 UNL     1      33.323  -7.683 -33.602  0.00  0.00    +0.000 C 
ATOM     39  C19 UNL     1      31.957  -7.311 -34.208  0.00  0.00    +0.000 C 
BRANCH  37  40
ATOM     40  O10 UNL     1      34.377  -8.693 -31.688  0.00  0.00    +0.000 OA
ATOM     41  H19 UNL     1      34.537  -9.510 -32.230  0.00  0.00    +0.000 HD
ENDBRANCH  37  40
BRANCH  38  42
ATOM     42  O11 UNL     1      33.912  -8.713 -34.354  0.00  0.00    +0.000 OA
ATOM     43  H21 UNL     1      33.586  -8.609 -35.286  0.00  0.00    +0.000 HD
ENDBRANCH  38  42
BRANCH  39  44
ATOM     44  O12 UNL     1      31.513  -6.059 -33.733  0.00  0.00    +0.000 OA
ATOM     45  H23 UNL     1      31.246  -6.161 -32.777  0.00  0.00    +0.000 HD
ENDBRANCH  39  44
ENDBRANCH  32  33
ENDBRANCH   5  32
BRANCH   6  46
ATOM     46  O13 UNL     1      29.355  -7.624 -37.203  0.00  0.00    +0.000 OA
BRANCH  46  47
ATOM     47  C21 UNL     1      30.562  -8.299 -37.550  0.00  0.00    +0.000 C 
ATOM     48  O14 UNL     1      31.419  -7.409 -38.249  0.00  0.00    +0.000 OA
ATOM     49  C22 UNL     1      30.806  -6.907 -39.432  0.00  0.00    +0.000 C 
ATOM     50  C23 UNL     1      31.752  -5.883 -40.052  0.00  0.00    +0.000 C 
ATOM     51  C24 UNL     1      30.516  -8.052 -40.434  0.00  0.00    +0.000 C 
ATOM     52  C25 UNL     1      29.653  -9.135 -39.758  0.00  0.00    +0.000 C 
ATOM     53  C26 UNL     1      30.267  -9.553 -38.411  0.00  0.00    +0.000 C 
BRANCH  51  54
ATOM     54  O15 UNL     1      29.884  -7.570 -41.595  0.00  0.00    +0.000 OA
ATOM     55  H31 UNL     1      29.598  -8.357 -42.123  0.00  0.00    +0.000 HD
ENDBRANCH  51  54
BRANCH  52  56
ATOM     56  O16 UNL     1      29.477 -10.250 -40.599  0.00  0.00    +0.000 OA
ATOM     57  H33 UNL     1      30.330 -10.412 -41.083  0.00  0.00    +0.000 HD
ENDBRANCH  52  56
BRANCH  53  58
ATOM     58  O17 UNL     1      31.420 -10.341 -38.599  0.00  0.00    +0.000 OA
ATOM     59  H35 UNL     1      32.216  -9.741 -38.595  0.00  0.00    +0.000 HD
ENDBRANCH  53  58
ENDBRANCH  46  47
ENDBRANCH   6  46
TORSDOF 16
ENDMDL
MODEL 5
REMARK VINA RESULT:    -4.471      2.166      4.530
REMARK INTER + INTRA:          -9.471
REMARK INTER:                  -9.450
REMARK INTRA:                  -0.021
REMARK UNBOUND:                -2.125
REMARK  Name = resultss/4CJN/ligands/lig_297_t2.pdb
REMARK  19 active torsions:
REMARK  status: ('A' for Active; 'I' for Inactive)
REMARK    1  A    between atoms: C1_1  and  O1_2
REMARK    2  A    between atoms: O1_2  and  C2_3
REMARK    3  A    between atoms: C4_5  and  O2_6
REMARK    4  A    between atoms: C6_8  and  O3_9
REMARK    5  A    between atoms: C9_13  and  C10_14
REMARK    6  A    between atoms: C11_16  and  O6_17
REMARK    7  A    between atoms: C12_18  and  O7_19
REMARK    8  A    between atoms: C13_20  and  O8_21
REMARK    9  A    between atoms: O8_21  and  C14_22
REMARK   10  A    between atoms: C15_24  and  C16_25
REMARK   11  A    between atoms: C17_26  and  O10_27
REMARK   12  A    between atoms: C18_28  and  O11_29
REMARK   13  A    between atoms: C19_30  and  O12_31
REMARK   14  A    between atoms: C20_32  and  O13_33
REMARK   15  A    between atoms: O13_33  and  C21_34
REMARK   16  A    between atoms: C22_36  and  C23_37
REMARK   17  A    between atoms: C24_38  and  O15_39
REMARK   18  A    between atoms: C25_40  and  O16_41
REMARK   19  A    between atoms: C26_42  and  O17_43
REMARK                            x       y       z     vdW  Elec       q    Type
REMARK                         _______ _______ _______ _____ _____    ______ ____
ROOT
ATOM      1  C10 UNL     1      26.489  -7.746 -38.519  0.00  0.00    +0.000 C 
ATOM      2  O5  UNL     1      27.589  -8.221 -39.285  0.00  0.00    +0.000 OA
ATOM      3  C11 UNL     1      28.585  -7.239 -39.518  0.00  0.00    +0.000 C 
ATOM      4  C12 UNL     1      29.255  -6.780 -38.191  0.00  0.00    +0.000 C 
ATOM      5  C13 UNL     1      28.303  -6.894 -36.972  0.00  0.00    +0.000 C 
ATOM      6  C20 UNL     1      26.850  -6.690 -37.425  0.00  0.00    +0.000 C 
ENDROOT
BRANCH   1  15
ATOM      7  C2  UNL     1      21.124  -6.310 -45.456  0.00  0.00    +0.000 A 
ATOM      8  C3  UNL     1      22.150  -7.054 -46.042  0.00  0.00    +0.000 A 
ATOM      9  C4  UNL     1      23.192  -7.590 -45.273  0.00  0.00    +0.000 A 
ATOM     10  C5  UNL     1      23.230  -7.354 -43.876  0.00  0.00    +0.000 A 
ATOM     11  C6  UNL     1      24.235  -7.906 -43.048  0.00  0.00    +0.000 A 
ATOM     12  C7  UNL     1      24.308  -7.507 -41.692  0.00  0.00    +0.000 A 
ATOM     13  C8  UNL     1      25.353  -7.840 -40.798  0.00  0.00    +0.000 A 
ATOM     14  O4  UNL     1      26.353  -8.496 -41.201  0.00  0.00    +0.000 OA
ATOM     15  C9  UNL     1      25.317  -7.394 -39.443  0.00  0.00    +0.000 A 
ATOM     16  C27 UNL     1      24.276  -6.533 -39.031  0.00  0.00    +0.000 A 
ATOM     17  C28 UNL     1      23.245  -6.172 -39.890  0.00  0.00    +0.000 A 
ATOM     18  C29 UNL     1      23.232  -6.615 -41.201  0.00  0.00    +0.000 A 
ATOM     19  O18 UNL     1      22.273  -6.209 -42.012  0.00  0.00    +0.000 OA
ATOM     20  C30 UNL     1      22.230  -6.531 -43.301  0.00  0.00    +0.000 A 
ATOM     21  C31 UNL     1      21.190  -6.020 -44.084  0.00  0.00    +0.000 A 
BRANCH  11  22
ATOM     22  O3  UNL     1      25.116  -8.850 -43.589  0.00  0.00    +0.000 OA
ATOM     23  H6  UNL     1      25.795  -8.625 -44.311  0.00  0.00    +0.000 HD
ENDBRANCH  11  22
BRANCH   7  25
ATOM     24  C1  UNL     1      19.713  -6.490 -47.511  0.00  0.00    +0.000 C 
ATOM     25  O1  UNL     1      20.065  -5.883 -46.265  0.00  0.00    +0.000 OA
ENDBRANCH   7  25
BRANCH   9  26
ATOM     26  O2  UNL     1      24.206  -8.303 -45.923  0.00  0.00    +0.000 OA
ATOM     27  H5  UNL     1      24.614  -9.105 -45.461  0.00  0.00    +0.000 HD
ENDBRANCH   9  26
ENDBRANCH   1  15
BRANCH   3  28
ATOM     28  O6  UNL     1      28.035  -6.135 -40.203  0.00  0.00    +0.000 OA
ATOM     29  H9  UNL     1      28.782  -5.679 -40.676  0.00  0.00    +0.000 HD
ENDBRANCH   3  28
BRANCH   4  30
ATOM     30  O7  UNL     1      30.458  -7.475 -37.957  0.00  0.00    +0.000 OA
ATOM     31  H11 UNL     1      30.426  -7.857 -37.040  0.00  0.00    +0.000 HD
ENDBRANCH   4  30
BRANCH   5  32
ATOM     32  O8  UNL     1      28.426  -8.174 -36.358  0.00  0.00    +0.000 OA
BRANCH  32  33
ATOM     33  C14 UNL     1      29.006  -8.077 -35.072  0.00  0.00    +0.000 C 
ATOM     34  O9  UNL     1      29.786  -6.894 -34.985  0.00  0.00    +0.000 OA
ATOM     35  C15 UNL     1      30.324  -6.700 -33.685  0.00  0.00    +0.000 C 
ATOM     36  C16 UNL     1      29.248  -6.282 -32.663  0.00  0.00    +0.000 C 
ATOM     37  C17 UNL     1      31.224  -7.890 -33.245  0.00  0.00    +0.000 C 
ATOM     38  C18 UNL     1      30.533  -9.249 -33.441  0.00  0.00    +0.000 C 
ATOM     39  C19 UNL     1      29.865  -9.332 -34.825  0.00  0.00    +0.000 C 
BRANCH  37  40
ATOM     40  O10 UNL     1      31.617  -7.744 -31.906  0.00  0.00    +0.000 OA
ATOM     41  H19 UNL     1      31.649  -6.769 -31.723  0.00  0.00    +0.000 HD
ENDBRANCH  37  40
BRANCH  38  42
ATOM     42  O11 UNL     1      29.569  -9.432 -32.436  0.00  0.00    +0.000 OA
ATOM     43  H21 UNL     1      28.797  -8.854 -32.671  0.00  0.00    +0.000 HD
ENDBRANCH  38  42
BRANCH  39  44
ATOM     44  O12 UNL     1      30.822  -9.532 -35.842  0.00  0.00    +0.000 OA
ATOM     45  H23 UNL     1      30.357  -9.508 -36.724  0.00  0.00    +0.000 HD
ENDBRANCH  39  44
ENDBRANCH  32  33
ENDBRANCH   5  32
BRANCH   6  46
ATOM     46  O13 UNL     1      25.976  -6.875 -36.322  0.00  0.00    +0.000 OA
BRANCH  46  47
ATOM     47  C21 UNL     1      25.442  -8.195 -36.257  0.00  0.00    +0.000 C 
ATOM     48  O14 UNL     1      24.031  -8.143 -36.404  0.00  0.00    +0.000 OA
ATOM     49  C22 UNL     1      23.425  -7.340 -35.395  0.00  0.00    +0.000 C 
ATOM     50  C23 UNL     1      21.932  -7.254 -35.698  0.00  0.00    +0.000 C 
ATOM     51  C24 UNL     1      23.658  -7.948 -33.990  0.00  0.00    +0.000 C 
ATOM     52  C25 UNL     1      25.167  -8.135 -33.742  0.00  0.00    +0.000 C 
ATOM     53  C26 UNL     1      25.820  -8.879 -34.918  0.00  0.00    +0.000 C 
BRANCH  51  54
ATOM     54  O15 UNL     1      23.088  -7.147 -32.983  0.00  0.00    +0.000 OA
ATOM     55  H31 UNL     1      22.132  -7.023 -33.210  0.00  0.00    +0.000 HD
ENDBRANCH  51  54
BRANCH  52  56
ATOM     56  O16 UNL     1      25.409  -8.802 -32.527  0.00  0.00    +0.000 OA
ATOM     57  H33 UNL     1      26.193  -8.374 -32.089  0.00  0.00    +0.000 HD
ENDBRANCH  52  56
BRANCH  53  58
ATOM     58  O17 UNL     1      25.472 -10.245 -34.914  0.00  0.00    +0.000 OA
ATOM     59  H35 UNL     1      24.595 -10.349 -35.375  0.00  0.00    +0.000 HD
ENDBRANCH  53  58
ENDBRANCH  46  47
ENDBRANCH   6  46
TORSDOF 16
ENDMDL
MODEL 6
REMARK VINA RESULT:    -4.375      1.769      2.843
REMARK INTER + INTRA:          -9.313
REMARK INTER:                  -8.455
REMARK INTRA:                  -0.858
REMARK UNBOUND:                -2.125
REMARK  Name = resultss/4CJN/ligands/lig_297_t2.pdb
REMARK  19 active torsions:
REMARK  status: ('A' for Active; 'I' for Inactive)
REMARK    1  A    between atoms: C1_1  and  O1_2
REMARK    2  A    between atoms: O1_2  and  C2_3
REMARK    3  A    between atoms: C4_5  and  O2_6
REMARK    4  A    between atoms: C6_8  and  O3_9
REMARK    5  A    between atoms: C9_13  and  C10_14
REMARK    6  A    between atoms: C11_16  and  O6_17
REMARK    7  A    between atoms: C12_18  and  O7_19
REMARK    8  A    between atoms: C13_20  and  O8_21
REMARK    9  A    between atoms: O8_21  and  C14_22
REMARK   10  A    between atoms: C15_24  and  C16_25
REMARK   11  A    between atoms: C17_26  and  O10_27
REMARK   12  A    between atoms: C18_28  and  O11_29
REMARK   13  A    between atoms: C19_30  and  O12_31
REMARK   14  A    between atoms: C20_32  and  O13_33
REMARK   15  A    between atoms: O13_33  and  C21_34
REMARK   16  A    between atoms: C22_36  and  C23_37
REMARK   17  A    between atoms: C24_38  and  O15_39
REMARK   18  A    between atoms: C25_40  and  O16_41
REMARK   19  A    between atoms: C26_42  and  O17_43
REMARK                            x       y       z     vdW  Elec       q    Type
REMARK                         _______ _______ _______ _____ _____    ______ ____
ROOT
ATOM      1  C10 UNL     1      26.317  -7.354 -39.497  0.00  0.00    +0.000 C 
ATOM      2  O5  UNL     1      25.176  -6.995 -38.726  0.00  0.00    +0.000 OA
ATOM      3  C11 UNL     1      24.499  -8.106 -38.163  0.00  0.00    +0.000 C 
ATOM      4  C12 UNL     1      25.393  -8.856 -37.133  0.00  0.00    +0.000 C 
ATOM      5  C13 UNL     1      26.905  -8.730 -37.454  0.00  0.00    +0.000 C 
ATOM      6  C20 UNL     1      27.107  -8.595 -38.970  0.00  0.00    +0.000 C 
ENDROOT
BRANCH   1  15
ATOM      7  C2  UNL     1      22.219  -7.172 -47.380  0.00  0.00    +0.000 A 
ATOM      8  C3  UNL     1      21.201  -6.749 -46.522  0.00  0.00    +0.000 A 
ATOM      9  C4  UNL     1      21.439  -6.535 -45.158  0.00  0.00    +0.000 A 
ATOM     10  C5  UNL     1      22.728  -6.778 -44.621  0.00  0.00    +0.000 A 
ATOM     11  C6  UNL     1      23.033  -6.539 -43.261  0.00  0.00    +0.000 A 
ATOM     12  C7  UNL     1      24.289  -6.948 -42.753  0.00  0.00    +0.000 A 
ATOM     13  C8  UNL     1      24.664  -6.931 -41.388  0.00  0.00    +0.000 A 
ATOM     14  O4  UNL     1      23.832  -6.585 -40.503  0.00  0.00    +0.000 OA
ATOM     15  C9  UNL     1      25.966  -7.353 -40.989  0.00  0.00    +0.000 A 
ATOM     16  C27 UNL     1      26.844  -7.883 -41.960  0.00  0.00    +0.000 A 
ATOM     17  C28 UNL     1      26.500  -7.932 -43.305  0.00  0.00    +0.000 A 
ATOM     18  C29 UNL     1      25.256  -7.498 -43.731  0.00  0.00    +0.000 A 
ATOM     19  O18 UNL     1      24.933  -7.611 -45.006  0.00  0.00    +0.000 OA
ATOM     20  C30 UNL     1      23.735  -7.284 -45.480  0.00  0.00    +0.000 A 
ATOM     21  C31 UNL     1      23.481  -7.474 -46.843  0.00  0.00    +0.000 A 
BRANCH  11  22
ATOM     22  O3  UNL     1      22.090  -5.883 -42.461  0.00  0.00    +0.000 OA
ATOM     23  H6  UNL     1      22.338  -5.369 -41.620  0.00  0.00    +0.000 HD
ENDBRANCH  11  22
BRANCH   7  25
ATOM     24  C1  UNL     1      20.751  -6.770 -49.362  0.00  0.00    +0.000 C 
ATOM     25  O1  UNL     1      21.938  -7.276 -48.747  0.00  0.00    +0.000 OA
ENDBRANCH   7  25
BRANCH   9  26
ATOM     26  O2  UNL     1      20.371  -6.138 -44.346  0.00  0.00    +0.000 OA
ATOM     27  H5  UNL     1      20.228  -5.152 -44.173  0.00  0.00    +0.000 HD
ENDBRANCH   9  26
ENDBRANCH   1  15
BRANCH   3  28
ATOM     28  O6  UNL     1      24.068  -8.986 -39.178  0.00  0.00    +0.000 OA
ATOM     29  H9  UNL     1      24.742  -8.948 -39.909  0.00  0.00    +0.000 HD
ENDBRANCH   3  28
BRANCH   4  30
ATOM     30  O7  UNL     1      25.121  -8.436 -35.816  0.00  0.00    +0.000 OA
ATOM     31  H11 UNL     1      24.143  -8.514 -35.659  0.00  0.00    +0.000 HD
ENDBRANCH   4  30
BRANCH   5  32
ATOM     32  O8  UNL     1      27.461  -7.589 -36.805  0.00  0.00    +0.000 OA
BRANCH  32  33
ATOM     33  C14 UNL     1      28.342  -7.963 -35.764  0.00  0.00    +0.000 C 
ATOM     34  O9  UNL     1      28.132  -9.327 -35.427  0.00  0.00    +0.000 OA
ATOM     35  C15 UNL     1      29.050  -9.783 -34.443  0.00  0.00    +0.000 C 
ATOM     36  C16 UNL     1      30.475  -9.954 -35.007  0.00  0.00    +0.000 C 
ATOM     37  C17 UNL     1      28.955  -8.954 -33.130  0.00  0.00    +0.000 C 
ATOM     38  C18 UNL     1      29.016  -7.441 -33.390  0.00  0.00    +0.000 C 
ATOM     39  C19 UNL     1      28.090  -7.044 -34.554  0.00  0.00    +0.000 C 
BRANCH  37  40
ATOM     40  O10 UNL     1      29.971  -9.325 -32.237  0.00  0.00    +0.000 OA
ATOM     41  H19 UNL     1      29.526  -9.557 -31.380  0.00  0.00    +0.000 HD
ENDBRANCH  37  40
BRANCH  38  42
ATOM     42  O11 UNL     1      30.338  -7.070 -33.687  0.00  0.00    +0.000 OA
ATOM     43  H21 UNL     1      30.618  -7.609 -34.472  0.00  0.00    +0.000 HD
ENDBRANCH  38  42
BRANCH  39  44
ATOM     44  O12 UNL     1      26.738  -7.046 -34.153  0.00  0.00    +0.000 OA
ATOM     45  H23 UNL     1      26.303  -6.219 -34.504  0.00  0.00    +0.000 HD
ENDBRANCH  39  44
ENDBRANCH  32  33
ENDBRANCH   5  32
BRANCH   6  46
ATOM     46  O13 UNL     1      28.484  -8.399 -39.253  0.00  0.00    +0.000 OA
BRANCH  46  47
ATOM     47  C21 UNL     1      29.216  -9.621 -39.307  0.00  0.00    +0.000 C 
ATOM     48  O14 UNL     1      30.373  -9.517 -38.491  0.00  0.00    +0.000 OA
ATOM     49  C22 UNL     1      31.216  -8.446 -38.906  0.00  0.00    +0.000 C 
ATOM     50  C23 UNL     1      32.368  -8.345 -37.912  0.00  0.00    +0.000 C 
ATOM     51  C24 UNL     1      31.756  -8.690 -40.337  0.00  0.00    +0.000 C 
ATOM     52  C25 UNL     1      30.582  -8.904 -41.312  0.00  0.00    +0.000 C 
ATOM     53  C26 UNL     1      29.612  -9.964 -40.765  0.00  0.00    +0.000 C 
BRANCH  51  54
ATOM     54  O15 UNL     1      32.566  -7.623 -40.768  0.00  0.00    +0.000 OA
ATOM     55  H31 UNL     1      32.158  -6.787 -40.430  0.00  0.00    +0.000 HD
ENDBRANCH  51  54
BRANCH  52  56
ATOM     56  O16 UNL     1      31.038  -9.253 -42.597  0.00  0.00    +0.000 OA
ATOM     57  H33 UNL     1      31.871  -8.742 -42.780  0.00  0.00    +0.000 HD
ENDBRANCH  52  56
BRANCH  53  58
ATOM     58  O17 UNL     1      30.161 -11.258 -40.867  0.00  0.00    +0.000 OA
ATOM     59  H35 UNL     1      30.789 -11.395 -40.105  0.00  0.00    +0.000 HD
ENDBRANCH  53  58
ENDBRANCH  46  47
ENDBRANCH   6  46
TORSDOF 16
ENDMDL
MODEL 7
REMARK VINA RESULT:    -4.022      1.963      3.670
REMARK INTER + INTRA:          -8.734
REMARK INTER:                  -8.986
REMARK INTRA:                   0.253
REMARK UNBOUND:                -2.125
REMARK  Name = resultss/4CJN/ligands/lig_297_t2.pdb
REMARK  19 active torsions:
REMARK  status: ('A' for Active; 'I' for Inactive)
REMARK    1  A    between atoms: C1_1  and  O1_2
REMARK    2  A    between atoms: O1_2  and  C2_3
REMARK    3  A    between atoms: C4_5  and  O2_6
REMARK    4  A    between atoms: C6_8  and  O3_9
REMARK    5  A    between atoms: C9_13  and  C10_14
REMARK    6  A    between atoms: C11_16  and  O6_17
REMARK    7  A    between atoms: C12_18  and  O7_19
REMARK    8  A    between atoms: C13_20  and  O8_21
REMARK    9  A    between atoms: O8_21  and  C14_22
REMARK   10  A    between atoms: C15_24  and  C16_25
REMARK   11  A    between atoms: C17_26  and  O10_27
REMARK   12  A    between atoms: C18_28  and  O11_29
REMARK   13  A    between atoms: C19_30  and  O12_31
REMARK   14  A    between atoms: C20_32  and  O13_33
REMARK   15  A    between atoms: O13_33  and  C21_34
REMARK   16  A    between atoms: C22_36  and  C23_37
REMARK   17  A    between atoms: C24_38  and  O15_39
REMARK   18  A    between atoms: C25_40  and  O16_41
REMARK   19  A    between atoms: C26_42  and  O17_43
REMARK                            x       y       z     vdW  Elec       q    Type
REMARK                         _______ _______ _______ _____ _____    ______ ____
ROOT
ATOM      1  C10 UNL     1      26.882  -8.037 -39.889  0.00  0.00    +0.000 C 
ATOM      2  O5  UNL     1      26.057  -9.021 -39.278  0.00  0.00    +0.000 OA
ATOM      3  C11 UNL     1      26.650 -10.308 -39.229  0.00  0.00    +0.000 C 
ATOM      4  C12 UNL     1      27.923 -10.315 -38.334  0.00  0.00    +0.000 C 
ATOM      5  C13 UNL     1      28.639  -8.940 -38.305  0.00  0.00    +0.000 C 
ATOM      6  C20 UNL     1      28.415  -8.207 -39.636  0.00  0.00    +0.000 C 
ENDROOT
BRANCH   1  15
ATOM      7  C2  UNL     1      22.373  -7.090 -47.488  0.00  0.00    +0.000 A 
ATOM      8  C3  UNL     1      21.350  -7.004 -46.540  0.00  0.00    +0.000 A 
ATOM      9  C4  UNL     1      21.628  -7.008 -45.166  0.00  0.00    +0.000 A 
ATOM     10  C5  UNL     1      22.967  -7.130 -44.718  0.00  0.00    +0.000 A 
ATOM     11  C6  UNL     1      23.306  -7.097 -43.346  0.00  0.00    +0.000 A 
ATOM     12  C7  UNL     1      24.637  -7.380 -42.957  0.00  0.00    +0.000 A 
ATOM     13  C8  UNL     1      25.080  -7.552 -41.624  0.00  0.00    +0.000 A 
ATOM     14  O4  UNL     1      24.256  -7.515 -40.668  0.00  0.00    +0.000 OA
ATOM     15  C9  UNL     1      26.453  -7.821 -41.345  0.00  0.00    +0.000 A 
ATOM     16  C27 UNL     1      27.348  -8.011 -42.421  0.00  0.00    +0.000 A 
ATOM     17  C28 UNL     1      26.940  -7.869 -43.742  0.00  0.00    +0.000 A 
ATOM     18  C29 UNL     1      25.622  -7.575 -44.046  0.00  0.00    +0.000 A 
ATOM     19  O18 UNL     1      25.250  -7.504 -45.311  0.00  0.00    +0.000 OA
ATOM     20  C30 UNL     1      23.991  -7.297 -45.683  0.00  0.00    +0.000 A 
ATOM     21  C31 UNL     1      23.694  -7.274 -47.050  0.00  0.00    +0.000 A 
BRANCH  11  22
ATOM     22  O3  UNL     1      22.319  -6.763 -42.412  0.00  0.00    +0.000 OA
ATOM     23  H6  UNL     1      21.769  -5.910 -42.468  0.00  0.00    +0.000 HD
ENDBRANCH  11  22
BRANCH   7  25
ATOM     24  C1  UNL     1      20.907  -6.259 -49.334  0.00  0.00    +0.000 C 
ATOM     25  O1  UNL     1      22.036  -6.986 -48.842  0.00  0.00    +0.000 OA
ENDBRANCH   7  25
BRANCH   9  26
ATOM     26  O2  UNL     1      20.558  -6.948 -44.267  0.00  0.00    +0.000 OA
ATOM     27  H5  UNL     1      19.780  -7.582 -44.388  0.00  0.00    +0.000 HD
ENDBRANCH   9  26
ENDBRANCH   1  15
BRANCH   3  28
ATOM     28  O6  UNL     1      26.957 -10.758 -40.530  0.00  0.00    +0.000 OA
ATOM     29  H9  UNL     1      26.550 -10.115 -41.169  0.00  0.00    +0.000 HD
ENDBRANCH   3  28
BRANCH   4  30
ATOM     30  O7  UNL     1      27.630 -10.758 -37.029  0.00  0.00    +0.000 OA
ATOM     31  H11 UNL     1      28.147 -10.203 -36.387  0.00  0.00    +0.000 HD
ENDBRANCH   4  30
BRANCH   5  32
ATOM     32  O8  UNL     1      28.138  -8.137 -37.240  0.00  0.00    +0.000 OA
BRANCH  32  33
ATOM     33  C14 UNL     1      29.036  -8.107 -36.147  0.00  0.00    +0.000 C 
ATOM     34  O9  UNL     1      29.872  -9.254 -36.184  0.00  0.00    +0.000 OA
ATOM     35  C15 UNL     1      30.853  -9.235 -35.157  0.00  0.00    +0.000 C 
ATOM     36  C16 UNL     1      31.960  -8.195 -35.425  0.00  0.00    +0.000 C 
ATOM     37  C17 UNL     1      30.213  -9.165 -33.741  0.00  0.00    +0.000 C 
ATOM     38  C18 UNL     1      29.166  -8.046 -33.629  0.00  0.00    +0.000 C 
ATOM     39  C19 UNL     1      28.219  -8.053 -34.843  0.00  0.00    +0.000 C 
BRANCH  37  40
ATOM     40  O10 UNL     1      31.200  -8.995 -32.759  0.00  0.00    +0.000 OA
ATOM     41  H19 UNL     1      32.075  -9.142 -33.206  0.00  0.00    +0.000 HD
ENDBRANCH  37  40
BRANCH  38  42
ATOM     42  O11 UNL     1      29.816  -6.804 -33.542  0.00  0.00    +0.000 OA
ATOM     43  H21 UNL     1      29.155  -6.114 -33.812  0.00  0.00    +0.000 HD
ENDBRANCH  38  42
BRANCH  39  44
ATOM     44  O12 UNL     1      27.284  -9.106 -34.753  0.00  0.00    +0.000 OA
ATOM     45  H23 UNL     1      27.324  -9.486 -33.831  0.00  0.00    +0.000 HD
ENDBRANCH  39  44
ENDBRANCH  32  33
ENDBRANCH   5  32
BRANCH   6  46
ATOM     46  O13 UNL     1      29.002  -6.917 -39.576  0.00  0.00    +0.000 OA
BRANCH  46  47
ATOM     47  C21 UNL     1      29.985  -6.710 -40.588  0.00  0.00    +0.000 C 
ATOM     48  O14 UNL     1      30.144  -7.901 -41.345  0.00  0.00    +0.000 OA
ATOM     49  C22 UNL     1      30.536  -8.998 -40.527  0.00  0.00    +0.000 C 
ATOM     50  C23 UNL     1      30.575 -10.246 -41.402  0.00  0.00    +0.000 C 
ATOM     51  C24 UNL     1      31.925  -8.742 -39.888  0.00  0.00    +0.000 C 
ATOM     52  C25 UNL     1      31.904  -7.419 -39.099  0.00  0.00    +0.000 C 
ATOM     53  C26 UNL     1      31.338  -6.282 -39.966  0.00  0.00    +0.000 C 
BRANCH  51  54
ATOM     54  O15 UNL     1      32.309  -9.808 -39.054  0.00  0.00    +0.000 OA
ATOM     55  H31 UNL     1      31.635  -9.876 -38.332  0.00  0.00    +0.000 HD
ENDBRANCH  51  54
BRANCH  52  56
ATOM     56  O16 UNL     1      33.183  -7.092 -38.611  0.00  0.00    +0.000 OA
ATOM     57  H33 UNL     1      33.578  -7.908 -38.204  0.00  0.00    +0.000 HD
ENDBRANCH  52  56
BRANCH  53  58
ATOM     58  O17 UNL     1      32.263  -5.883 -40.951  0.00  0.00    +0.000 OA
ATOM     59  H35 UNL     1      32.869  -6.650 -41.144  0.00  0.00    +0.000 HD
ENDBRANCH  53  58
ENDBRANCH  46  47
ENDBRANCH   6  46
TORSDOF 16
ENDMDL
MODEL 8
REMARK VINA RESULT:    -3.857      1.552      2.724
REMARK INTER + INTRA:          -8.462
REMARK INTER:                  -9.415
REMARK INTRA:                   0.953
REMARK UNBOUND:                -2.125
REMARK  Name = resultss/4CJN/ligands/lig_297_t2.pdb
REMARK  19 active torsions:
REMARK  status: ('A' for Active; 'I' for Inactive)
REMARK    1  A    between atoms: C1_1  and  O1_2
REMARK    2  A    between atoms: O1_2  and  C2_3
REMARK    3  A    between atoms: C4_5  and  O2_6
REMARK    4  A    between atoms: C6_8  and  O3_9
REMARK    5  A    between atoms: C9_13  and  C10_14
REMARK    6  A    between atoms: C11_16  and  O6_17
REMARK    7  A    between atoms: C12_18  and  O7_19
REMARK    8  A    between atoms: C13_20  and  O8_21
REMARK    9  A    between atoms: O8_21  and  C14_22
REMARK   10  A    between atoms: C15_24  and  C16_25
REMARK   11  A    between atoms: C17_26  and  O10_27
REMARK   12  A    between atoms: C18_28  and  O11_29
REMARK   13  A    between atoms: C19_30  and  O12_31
REMARK   14  A    between atoms: C20_32  and  O13_33
REMARK   15  A    between atoms: O13_33  and  C21_34
REMARK   16  A    between atoms: C22_36  and  C23_37
REMARK   17  A    between atoms: C24_38  and  O15_39
REMARK   18  A    between atoms: C25_40  and  O16_41
REMARK   19  A    between atoms: C26_42  and  O17_43
REMARK                            x       y       z     vdW  Elec       q    Type
REMARK                         _______ _______ _______ _____ _____    ______ ____
ROOT
ATOM      1  C10 UNL     1      26.489  -7.588 -39.939  0.00  0.00    +0.000 C 
ATOM      2  O5  UNL     1      26.042  -6.530 -39.100  0.00  0.00    +0.000 OA
ATOM      3  C11 UNL     1      25.275  -6.970 -37.993  0.00  0.00    +0.000 C 
ATOM      4  C12 UNL     1      26.120  -7.848 -37.026  0.00  0.00    +0.000 C 
ATOM      5  C13 UNL     1      27.258  -8.611 -37.754  0.00  0.00    +0.000 C 
ATOM      6  C20 UNL     1      26.836  -8.919 -39.199  0.00  0.00    +0.000 C 
ENDROOT
BRANCH   1  15
ATOM      7  C2  UNL     1      22.710  -6.961 -47.958  0.00  0.00    +0.000 A 
ATOM      8  C3  UNL     1      23.985  -6.445 -48.205  0.00  0.00    +0.000 A 
ATOM      9  C4  UNL     1      24.975  -6.442 -47.213  0.00  0.00    +0.000 A 
ATOM     10  C5  UNL     1      24.679  -6.944 -45.921  0.00  0.00    +0.000 A 
ATOM     11  C6  UNL     1      25.652  -7.003 -44.896  0.00  0.00    +0.000 A 
ATOM     12  C7  UNL     1      25.256  -7.367 -43.588  0.00  0.00    +0.000 A 
ATOM     13  C8  UNL     1      26.077  -7.302 -42.437  0.00  0.00    +0.000 A 
ATOM     14  O4  UNL     1      27.249  -6.840 -42.516  0.00  0.00    +0.000 OA
ATOM     15  C9  UNL     1      25.576  -7.710 -41.165  0.00  0.00    +0.000 A 
ATOM     16  C27 UNL     1      24.220  -8.084 -41.049  0.00  0.00    +0.000 A 
ATOM     17  C28 UNL     1      23.381  -8.139 -42.156  0.00  0.00    +0.000 A 
ATOM     18  C29 UNL     1      23.845  -7.783 -43.410  0.00  0.00    +0.000 A 
ATOM     19  O18 UNL     1      23.011  -7.788 -44.434  0.00  0.00    +0.000 OA
ATOM     20  C30 UNL     1      23.361  -7.391 -45.653  0.00  0.00    +0.000 A 
ATOM     21  C31 UNL     1      22.392  -7.401 -46.663  0.00  0.00    +0.000 A 
BRANCH  11  22
ATOM     22  O3  UNL     1      26.986  -6.721 -45.213  0.00  0.00    +0.000 OA
ATOM     23  H6  UNL     1      27.603  -6.198 -44.599  0.00  0.00    +0.000 HD
ENDBRANCH  11  22
BRANCH   7  25
ATOM     24  C1  UNL     1      20.421  -6.650 -48.912  0.00  0.00    +0.000 C 
ATOM     25  O1  UNL     1      21.799  -7.019 -49.018  0.00  0.00    +0.000 OA
ENDBRANCH   7  25
BRANCH   9  26
ATOM     26  O2  UNL     1      26.223  -5.886 -47.514  0.00  0.00    +0.000 OA
ATOM     27  H5  UNL     1      26.915  -5.811 -46.780  0.00  0.00    +0.000 HD
ENDBRANCH   9  26
ENDBRANCH   1  15
BRANCH   3  28
ATOM     28  O6  UNL     1      24.135  -7.675 -38.432  0.00  0.00    +0.000 OA
ATOM     29  H9  UNL     1      24.415  -8.242 -39.200  0.00  0.00    +0.000 HD
ENDBRANCH   3  28
BRANCH   4  30
ATOM     30  O7  UNL     1      26.630  -7.087 -35.955  0.00  0.00    +0.000 OA
ATOM     31  H11 UNL     1      27.572  -6.847 -36.162  0.00  0.00    +0.000 HD
ENDBRANCH   4  30
BRANCH   5  32
ATOM     32  O8  UNL     1      28.451  -7.832 -37.772  0.00  0.00    +0.000 OA
BRANCH  32  33
ATOM     33  C14 UNL     1      29.267  -8.110 -36.651  0.00  0.00    +0.000 C 
ATOM     34  O9  UNL     1      30.574  -7.599 -36.871  0.00  0.00    +0.000 OA
ATOM     35  C15 UNL     1      31.415  -7.774 -35.740  0.00  0.00    +0.000 C 
ATOM     36  C16 UNL     1      31.043  -6.827 -34.582  0.00  0.00    +0.000 C 
ATOM     37  C17 UNL     1      31.557  -9.272 -35.347  0.00  0.00    +0.000 C 
ATOM     38  C18 UNL     1      30.196  -9.977 -35.230  0.00  0.00    +0.000 C 
ATOM     39  C19 UNL     1      29.294  -9.634 -36.430  0.00  0.00    +0.000 C 
BRANCH  37  40
ATOM     40  O10 UNL     1      32.266  -9.403 -34.143  0.00  0.00    +0.000 OA
ATOM     41  H19 UNL     1      32.400 -10.376 -33.996  0.00  0.00    +0.000 HD
ENDBRANCH  37  40
BRANCH  38  42
ATOM     42  O11 UNL     1      29.568  -9.584 -34.037  0.00  0.00    +0.000 OA
ATOM     43  H21 UNL     1      29.082  -8.741 -34.232  0.00  0.00    +0.000 HD
ENDBRANCH  38  42
BRANCH  39  44
ATOM     44  O12 UNL     1      29.697 -10.335 -37.586  0.00  0.00    +0.000 OA
ATOM     45  H23 UNL     1      28.982 -10.245 -38.276  0.00  0.00    +0.000 HD
ENDBRANCH  39  44
ENDBRANCH  32  33
ENDBRANCH   5  32
BRANCH   6  46
ATOM     46  O13 UNL     1      27.909  -9.545 -39.885  0.00  0.00    +0.000 OA
BRANCH  46  47
ATOM     47  C21 UNL     1      28.374  -8.781 -40.995  0.00  0.00    +0.000 C 
ATOM     48  O14 UNL     1      28.873  -9.655 -41.996  0.00  0.00    +0.000 OA
ATOM     49  C22 UNL     1      29.936 -10.466 -41.506  0.00  0.00    +0.000 C 
ATOM     50  C23 UNL     1      30.330 -11.440 -42.611  0.00  0.00    +0.000 C 
ATOM     51  C24 UNL     1      31.150  -9.596 -41.093  0.00  0.00    +0.000 C 
ATOM     52  C25 UNL     1      30.712  -8.540 -40.060  0.00  0.00    +0.000 C 
ATOM     53  C26 UNL     1      29.472  -7.779 -40.557  0.00  0.00    +0.000 C 
BRANCH  51  54
ATOM     54  O15 UNL     1      32.195 -10.385 -40.579  0.00  0.00    +0.000 OA
ATOM     55  H31 UNL     1      32.781  -9.790 -40.048  0.00  0.00    +0.000 HD
ENDBRANCH  51  54
BRANCH  52  56
ATOM     56  O16 UNL     1      31.761  -7.652 -39.757  0.00  0.00    +0.000 OA
ATOM     57  H33 UNL     1      31.366  -6.827 -39.367  0.00  0.00    +0.000 HD
ENDBRANCH  52  56
BRANCH  53  58
ATOM     58  O17 UNL     1      29.805  -6.882 -41.592  0.00  0.00    +0.000 OA
ATOM     59  H35 UNL     1      28.991  -6.358 -41.828  0.00  0.00    +0.000 HD
ENDBRANCH  53  58
ENDBRANCH  46  47
ENDBRANCH   6  46
TORSDOF 16
ENDMDL
MODEL 9
REMARK VINA RESULT:    -3.360      2.208      4.569
REMARK INTER + INTRA:          -7.646
REMARK INTER:                  -8.119
REMARK INTRA:                   0.473
REMARK UNBOUND:                -2.125
REMARK  Name = resultss/4CJN/ligands/lig_297_t2.pdb
REMARK  19 active torsions:
REMARK  status: ('A' for Active; 'I' for Inactive)
REMARK    1  A    between atoms: C1_1  and  O1_2
REMARK    2  A    between atoms: O1_2  and  C2_3
REMARK    3  A    between atoms: C4_5  and  O2_6
REMARK    4  A    between atoms: C6_8  and  O3_9
REMARK    5  A    between atoms: C9_13  and  C10_14
REMARK    6  A    between atoms: C11_16  and  O6_17
REMARK    7  A    between atoms: C12_18  and  O7_19
REMARK    8  A    between atoms: C13_20  and  O8_21
REMARK    9  A    between atoms: O8_21  and  C14_22
REMARK   10  A    between atoms: C15_24  and  C16_25
REMARK   11  A    between atoms: C17_26  and  O10_27
REMARK   12  A    between atoms: C18_28  and  O11_29
REMARK   13  A    between atoms: C19_30  and  O12_31
REMARK   14  A    between atoms: C20_32  and  O13_33
REMARK   15  A    between atoms: O13_33  and  C21_34
REMARK   16  A    between atoms: C22_36  and  C23_37
REMARK   17  A    between atoms: C24_38  and  O15_39
REMARK   18  A    between atoms: C25_40  and  O16_41
REMARK   19  A    between atoms: C26_42  and  O17_43
REMARK                            x       y       z     vdW  Elec       q    Type
REMARK                         _______ _______ _______ _____ _____    ______ ____
ROOT
ATOM      1  C10 UNL     1      27.106  -7.789 -40.379  0.00  0.00    +0.000 C 
ATOM      2  O5  UNL     1      28.023  -8.126 -41.413  0.00  0.00    +0.000 OA
ATOM      3  C11 UNL     1      28.855  -7.047 -41.806  0.00  0.00    +0.000 C 
ATOM      4  C12 UNL     1      29.789  -6.595 -40.646  0.00  0.00    +0.000 C 
ATOM      5  C13 UNL     1      29.170  -6.854 -39.248  0.00  0.00    +0.000 C 
ATOM      6  C20 UNL     1      27.639  -6.761 -39.330  0.00  0.00    +0.000 C 
ENDROOT
BRANCH   1  15
ATOM      7  C2  UNL     1      20.169  -6.355 -45.744  0.00  0.00    +0.000 A 
ATOM      8  C3  UNL     1      21.104  -6.895 -46.630  0.00  0.00    +0.000 A 
ATOM      9  C4  UNL     1      22.345  -7.367 -46.181  0.00  0.00    +0.000 A 
ATOM     10  C5  UNL     1      22.679  -7.274 -44.807  0.00  0.00    +0.000 A 
ATOM     11  C6  UNL     1      23.899  -7.773 -44.294  0.00  0.00    +0.000 A 
ATOM     12  C7  UNL     1      24.241  -7.510 -42.947  0.00  0.00    +0.000 A 
ATOM     13  C8  UNL     1      25.492  -7.794 -42.350  0.00  0.00    +0.000 A 
ATOM     14  O4  UNL     1      26.435  -8.270 -43.042  0.00  0.00    +0.000 OA
ATOM     15  C9  UNL     1      25.723  -7.499 -40.974  0.00  0.00    +0.000 A 
ATOM     16  C27 UNL     1      24.721  -6.829 -40.238  0.00  0.00    +0.000 A 
ATOM     17  C28 UNL     1      23.489  -6.519 -40.799  0.00  0.00    +0.000 A 
ATOM     18  C29 UNL     1      23.220  -6.822 -42.123  0.00  0.00    +0.000 A 
ATOM     19  O18 UNL     1      22.063  -6.462 -42.647  0.00  0.00    +0.000 OA
ATOM     20  C30 UNL     1      21.759  -6.652 -43.926  0.00  0.00    +0.000 A 
ATOM     21  C31 UNL     1      20.519  -6.203 -44.393  0.00  0.00    +0.000 A 
BRANCH  11  22
ATOM     22  O3  UNL     1      24.725  -8.533 -45.131  0.00  0.00    +0.000 OA
ATOM     23  H6  UNL     1      25.737  -8.553 -45.043  0.00  0.00    +0.000 HD
ENDBRANCH  11  22
BRANCH   7  25
ATOM     24  C1  UNL     1      18.543  -6.073 -47.621  0.00  0.00    +0.000 C 
ATOM     25  O1  UNL     1      18.914  -5.988 -46.243  0.00  0.00    +0.000 OA
ENDBRANCH   7  25
BRANCH   9  26
ATOM     26  O2  UNL     1      23.250  -7.871 -47.122  0.00  0.00    +0.000 OA
ATOM     27  H5  UNL     1      24.160  -8.182 -46.808  0.00  0.00    +0.000 HD
ENDBRANCH   9  26
ENDBRANCH   1  15
BRANCH   3  28
ATOM     28  O6  UNL     1      28.075  -5.965 -42.264  0.00  0.00    +0.000 OA
ATOM     29  H9  UNL     1      27.184  -6.037 -41.827  0.00  0.00    +0.000 HD
ENDBRANCH   3  28
BRANCH   4  30
ATOM     30  O7  UNL     1      31.062  -7.190 -40.751  0.00  0.00    +0.000 OA
ATOM     31  H11 UNL     1      31.495  -7.160 -39.858  0.00  0.00    +0.000 HD
ENDBRANCH   4  30
BRANCH   5  32
ATOM     32  O8  UNL     1      29.534  -8.147 -38.771  0.00  0.00    +0.000 OA
BRANCH  32  33
ATOM     33  C14 UNL     1      30.340  -8.063 -37.612  0.00  0.00    +0.000 C 
ATOM     34  O9  UNL     1      31.359  -7.092 -37.807  0.00  0.00    +0.000 OA
ATOM     35  C15 UNL     1      32.149  -6.904 -36.642  0.00  0.00    +0.000 C 
ATOM     36  C16 UNL     1      31.387  -6.146 -35.535  0.00  0.00    +0.000 C 
ATOM     37  C17 UNL     1      32.837  -8.221 -36.184  0.00  0.00    +0.000 C 
ATOM     38  C18 UNL     1      31.847  -9.393 -36.087  0.00  0.00    +0.000 C 
ATOM     39  C19 UNL     1      30.940  -9.453 -37.330  0.00  0.00    +0.000 C 
BRANCH  37  40
ATOM     40  O10 UNL     1      33.483  -8.041 -34.953  0.00  0.00    +0.000 OA
ATOM     41  H19 UNL     1      33.326  -8.867 -34.425  0.00  0.00    +0.000 HD
ENDBRANCH  37  40
BRANCH  38  42
ATOM     42  O11 UNL     1      31.060  -9.246 -34.932  0.00  0.00    +0.000 OA
ATOM     43  H21 UNL     1      30.113  -9.229 -35.230  0.00  0.00    +0.000 HD
ENDBRANCH  38  42
BRANCH  39  44
ATOM     44  O12 UNL     1      31.635  -9.972 -38.442  0.00  0.00    +0.000 OA
ATOM     45  H23 UNL     1      32.611  -9.812 -38.307  0.00  0.00    +0.000 HD
ENDBRANCH  39  44
ENDBRANCH  32  33
ENDBRANCH   5  32
BRANCH   6  46
ATOM     46  O13 UNL     1      27.073  -7.078 -38.068  0.00  0.00    +0.000 OA
BRANCH  46  47
ATOM     47  C21 UNL     1      26.707  -8.451 -37.956  0.00  0.00    +0.000 C 
ATOM     48  O14 UNL     1      25.323  -8.549 -37.654  0.00  0.00    +0.000 OA
ATOM     49  C22 UNL     1      24.999  -7.877 -36.441  0.00  0.00    +0.000 C 
ATOM     50  C23 UNL     1      23.487  -7.943 -36.258  0.00  0.00    +0.000 C 
ATOM     51  C24 UNL     1      25.719  -8.532 -35.236  0.00  0.00    +0.000 C 
ATOM     52  C25 UNL     1      27.240  -8.561 -35.485  0.00  0.00    +0.000 C 
ATOM     53  C26 UNL     1      27.549  -9.162 -36.867  0.00  0.00    +0.000 C 
BRANCH  51  54
ATOM     54  O15 UNL     1      25.429  -7.857 -34.036  0.00  0.00    +0.000 OA
ATOM     55  H31 UNL     1      25.474  -8.522 -33.305  0.00  0.00    +0.000 HD
ENDBRANCH  51  54
BRANCH  52  56
ATOM     56  O16 UNL     1      27.913  -9.263 -34.468  0.00  0.00    +0.000 OA
ATOM     57  H33 UNL     1      27.387 -10.078 -34.252  0.00  0.00    +0.000 HD
ENDBRANCH  52  56
BRANCH  53  58
ATOM     58  O17 UNL     1      27.344 -10.556 -36.874  0.00  0.00    +0.000 OA
ATOM     59  H35 UNL     1      26.461 -10.742 -37.295  0.00  0.00    +0.000 HD
ENDBRANCH  53  58
ENDBRANCH  46  47
ENDBRANCH   6  46
TORSDOF 16
ENDMDL
