MODEL 1
REMARK VINA RESULT:    -6.476      0.000      0.000
REMARK INTER + INTRA:         -14.850
REMARK INTER:                 -12.344
REMARK INTRA:                  -2.506
REMARK UNBOUND:                -2.506
REMARK  Name = resultss/4CJN/ligands/lig_198_t0.pdb
REMARK  23 active torsions:
REMARK  status: ('A' for Active; 'I' for Inactive)
REMARK    1  A    between atoms: C1_1  and  C2_2
REMARK    2  A    between atoms: C3_4  and  O2_5
REMARK    3  A    between atoms: O2_5  and  C4_6
REMARK    4  A    between atoms: C5_7  and  O3_8
REMARK    5  A    between atoms: C6_9  and  O4_10
REMARK    6  A    between atoms: C7_11  and  O5_12
REMARK    7  A    between atoms: O5_12  and  C8_13
REMARK    8  A    between atoms: C9_14  and  O6_15
REMARK    9  A    between atoms: C10_16  and  O7_17
REMARK   10  A    between atoms: C11_18  and  O8_19
REMARK   11  A    between atoms: C12_21  and  C13_22
REMARK   12  A    between atoms: C13_22  and  O10_23
REMARK   13  A    between atoms: C14_25  and  C15_26
REMARK   14  A    between atoms: C15_26  and  O12_27
REMARK   15  A    between atoms: C16_28  and  O13_29
REMARK   16  A    between atoms: C17_30  and  O14_31
REMARK   17  A    between atoms: C18_32  and  N1_33
REMARK   18  A    between atoms: N1_33  and  C19_34
REMARK   19  A    between atoms: C21_36  and  C22_37
REMARK   20  A    between atoms: C22_37  and  O15_38
REMARK   21  A    between atoms: C23_39  and  O16_40
REMARK   22  A    between atoms: C24_41  and  O17_42
REMARK   23  A    between atoms: C25_43  and  O18_44
REMARK                            x       y       z     vdW  Elec       q    Type
REMARK                         _______ _______ _______ _____ _____    ______ ____
ROOT
ATOM      1  O2  UNL     1      29.908  -9.521 -39.764  0.00  0.00    +0.000 OA
ENDROOT
BRANCH   1   5
ATOM      2  C1  UNL     1      25.784  -9.492 -40.232  0.00  0.00    +0.000 C 
ATOM      3  C2  UNL     1      26.749  -9.801 -41.386  0.00  0.00    +0.000 C 
ATOM      4  O1  UNL     1      27.994 -10.197 -40.829  0.00  0.00    +0.000 OA
ATOM      5  C3  UNL     1      28.861  -9.103 -40.625  0.00  0.00    +0.000 C 
ATOM      6  C16 UNL     1      29.422  -8.714 -41.995  0.00  0.00    +0.000 C 
ATOM      7  C17 UNL     1      28.268  -8.348 -42.971  0.00  0.00    +0.000 C 
ATOM      8  C18 UNL     1      26.830  -8.622 -42.443  0.00  0.00    +0.000 C 
BRANCH   8   9
ATOM      9  N1  UNL     1      25.980  -8.871 -43.633  0.00  0.00    +0.000 NA
ATOM     10  H32 UNL     1      25.644  -9.862 -43.637  0.00  0.00    +0.000 HD
BRANCH   9  11
ATOM     11  C19 UNL     1      24.859  -7.930 -43.816  0.00  0.00    +0.000 C 
ATOM     12  C20 UNL     1      24.419  -7.894 -45.265  0.00  0.00    +0.000 C 
ATOM     13  C21 UNL     1      23.268  -7.278 -45.592  0.00  0.00    +0.000 C 
ATOM     14  C23 UNL     1      22.460  -6.630 -44.479  0.00  0.00    +0.000 C 
ATOM     15  C24 UNL     1      22.304  -7.638 -43.313  0.00  0.00    +0.000 C 
ATOM     16  C25 UNL     1      23.651  -8.324 -42.901  0.00  0.00    +0.000 C 
BRANCH  16  17
ATOM     17  O18 UNL     1      23.477  -9.725 -42.849  0.00  0.00    +0.000 OA
ATOM     18  H43 UNL     1      22.877  -9.926 -42.084  0.00  0.00    +0.000 HD
ENDBRANCH  16  17
BRANCH  15  19
ATOM     19  O17 UNL     1      21.702  -7.025 -42.198  0.00  0.00    +0.000 OA
ATOM     20  H41 UNL     1      21.640  -7.709 -41.482  0.00  0.00    +0.000 HD
ENDBRANCH  15  19
BRANCH  14  21
ATOM     21  O16 UNL     1      21.194  -6.234 -44.944  0.00  0.00    +0.000 OA
ATOM     22  H39 UNL     1      21.140  -6.504 -45.897  0.00  0.00    +0.000 HD
ENDBRANCH  14  21
BRANCH  13  23
ATOM     23  C22 UNL     1      22.794  -7.254 -47.023  0.00  0.00    +0.000 C 
BRANCH  23  24
ATOM     24  O15 UNL     1      23.309  -8.349 -47.725  0.00  0.00    +0.000 OA
ATOM     25  H37 UNL     1      22.728  -9.129 -47.509  0.00  0.00    +0.000 HD
ENDBRANCH  23  24
ENDBRANCH  13  23
ENDBRANCH   9  11
ENDBRANCH   8   9
BRANCH   7  26
ATOM     26  O14 UNL     1      28.391  -7.006 -43.394  0.00  0.00    +0.000 OA
ATOM     27  H30 UNL     1      29.311  -6.892 -43.755  0.00  0.00    +0.000 HD
ENDBRANCH   7  26
BRANCH   6  28
ATOM     28  O13 UNL     1      30.132  -9.805 -42.537  0.00  0.00    +0.000 OA
ATOM     29  H28 UNL     1      30.509  -9.507 -43.406  0.00  0.00    +0.000 HD
ENDBRANCH   6  28
ENDBRANCH   1   5
BRANCH   1  30
ATOM     30  C4  UNL     1      29.848  -8.901 -38.483  0.00  0.00    +0.000 C 
ATOM     31  C5  UNL     1      29.844 -10.005 -37.388  0.00  0.00    +0.000 C 
ATOM     32  C6  UNL     1      28.409 -10.355 -36.957  0.00  0.00    +0.000 C 
ATOM     33  C7  UNL     1      27.655  -9.072 -36.494  0.00  0.00    +0.000 C 
ATOM     34  O11 UNL     1      28.192  -7.872 -37.042  0.00  0.00    +0.000 OA
ATOM     35  C14 UNL     1      28.564  -8.035 -38.399  0.00  0.00    +0.000 C 
BRANCH  32  36
ATOM     36  O4  UNL     1      27.735 -10.969 -38.031  0.00  0.00    +0.000 OA
ATOM     37  H10 UNL     1      26.987 -10.372 -38.285  0.00  0.00    +0.000 HD
ENDBRANCH  32  36
BRANCH  31  38
ATOM     38  O3  UNL     1      30.564  -9.573 -36.260  0.00  0.00    +0.000 OA
ATOM     39  H8  UNL     1      30.425 -10.249 -35.549  0.00  0.00    +0.000 HD
ENDBRANCH  31  38
BRANCH  35  40
ATOM     40  C15 UNL     1      28.786  -6.654 -39.031  0.00  0.00    +0.000 C 
BRANCH  40  41
ATOM     41  O12 UNL     1      27.596  -6.178 -39.597  0.00  0.00    +0.000 OA
ATOM     42  H26 UNL     1      26.875  -6.360 -38.940  0.00  0.00    +0.000 HD
ENDBRANCH  40  41
ENDBRANCH  35  40
BRANCH  33  43
ATOM     43  O5  UNL     1      26.275  -9.175 -36.825  0.00  0.00    +0.000 OA
BRANCH  43  44
ATOM     44  C8  UNL     1      25.414  -8.793 -35.761  0.00  0.00    +0.000 C 
ATOM     45  C9  UNL     1      25.943  -9.358 -34.421  0.00  0.00    +0.000 C 
ATOM     46  C10 UNL     1      25.333  -8.645 -33.184  0.00  0.00    +0.000 C 
ATOM     47  C11 UNL     1      24.285  -7.601 -33.609  0.00  0.00    +0.000 C 
ATOM     48  O9  UNL     1      24.869  -6.663 -34.492  0.00  0.00    +0.000 OA
ATOM     49  C12 UNL     1      25.369  -7.237 -35.703  0.00  0.00    +0.000 C 
BRANCH  47  50
ATOM     50  O8  UNL     1      23.810  -6.927 -32.471  0.00  0.00    +0.000 OA
ATOM     51  H18 UNL     1      23.286  -6.152 -32.799  0.00  0.00    +0.000 HD
ENDBRANCH  47  50
BRANCH  46  52
ATOM     52  O7  UNL     1      26.363  -8.010 -32.463  0.00  0.00    +0.000 OA
ATOM     53  H16 UNL     1      26.258  -7.031 -32.595  0.00  0.00    +0.000 HD
ENDBRANCH  46  52
BRANCH  45  54
ATOM     54  O6  UNL     1      25.714 -10.746 -34.347  0.00  0.00    +0.000 OA
ATOM     55  H14 UNL     1      24.999 -10.893 -33.671  0.00  0.00    +0.000 HD
ENDBRANCH  45  54
BRANCH  49  56
ATOM     56  C13 UNL     1      24.574  -6.686 -36.894  0.00  0.00    +0.000 C 
BRANCH  56  57
ATOM     57  O10 UNL     1      25.348  -6.750 -38.060  0.00  0.00    +0.000 OA
ATOM     58  H22 UNL     1      26.155  -6.190 -37.896  0.00  0.00    +0.000 HD
ENDBRANCH  56  57
ENDBRANCH  49  56
ENDBRANCH  43  44
ENDBRANCH  33  43
ENDBRANCH   1  30
TORSDOF 22
ENDMDL
MODEL 2
REMARK VINA RESULT:    -5.231      3.094     10.163
REMARK INTER + INTRA:         -12.477
REMARK INTER:                  -9.650
REMARK INTRA:                  -2.827
REMARK UNBOUND:                -2.506
REMARK  Name = resultss/4CJN/ligands/lig_198_t0.pdb
REMARK  23 active torsions:
REMARK  status: ('A' for Active; 'I' for Inactive)
REMARK    1  A    between atoms: C1_1  and  C2_2
REMARK    2  A    between atoms: C3_4  and  O2_5
REMARK    3  A    between atoms: O2_5  and  C4_6
REMARK    4  A    between atoms: C5_7  and  O3_8
REMARK    5  A    between atoms: C6_9  and  O4_10
REMARK    6  A    between atoms: C7_11  and  O5_12
REMARK    7  A    between atoms: O5_12  and  C8_13
REMARK    8  A    between atoms: C9_14  and  O6_15
REMARK    9  A    between atoms: C10_16  and  O7_17
REMARK   10  A    between atoms: C11_18  and  O8_19
REMARK   11  A    between atoms: C12_21  and  C13_22
REMARK   12  A    between atoms: C13_22  and  O10_23
REMARK   13  A    between atoms: C14_25  and  C15_26
REMARK   14  A    between atoms: C15_26  and  O12_27
REMARK   15  A    between atoms: C16_28  and  O13_29
REMARK   16  A    between atoms: C17_30  and  O14_31
REMARK   17  A    between atoms: C18_32  and  N1_33
REMARK   18  A    between atoms: N1_33  and  C19_34
REMARK   19  A    between atoms: C21_36  and  C22_37
REMARK   20  A    between atoms: C22_37  and  O15_38
REMARK   21  A    between atoms: C23_39  and  O16_40
REMARK   22  A    between atoms: C24_41  and  O17_42
REMARK   23  A    between atoms: C25_43  and  O18_44
REMARK                            x       y       z     vdW  Elec       q    Type
REMARK                         _______ _______ _______ _____ _____    ______ ____
ROOT
ATOM      1  O2  UNL     1      27.583  -9.374 -39.818  0.00  0.00    +0.000 OA
ENDROOT
BRANCH   1   5
ATOM      2  C1  UNL     1      28.578  -6.267 -37.253  0.00  0.00    +0.000 C 
ATOM      3  C2  UNL     1      28.807  -7.743 -36.898  0.00  0.00    +0.000 C 
ATOM      4  O1  UNL     1      28.824  -8.492 -38.105  0.00  0.00    +0.000 OA
ATOM      5  C3  UNL     1      27.541  -8.956 -38.463  0.00  0.00    +0.000 C 
ATOM      6  C16 UNL     1      27.223 -10.143 -37.550  0.00  0.00    +0.000 C 
ATOM      7  C17 UNL     1      27.271  -9.709 -36.058  0.00  0.00    +0.000 C 
ATOM      8  C18 UNL     1      27.797  -8.267 -35.794  0.00  0.00    +0.000 C 
BRANCH   8   9
ATOM      9  N1  UNL     1      28.397  -8.275 -34.438  0.00  0.00    +0.000 NA
ATOM     10  H32 UNL     1      28.110  -9.137 -33.920  0.00  0.00    +0.000 HD
BRANCH   9  11
ATOM     11  C19 UNL     1      29.860  -8.091 -34.394  0.00  0.00    +0.000 C 
ATOM     12  C20 UNL     1      30.247  -7.132 -33.288  0.00  0.00    +0.000 C 
ATOM     13  C21 UNL     1      31.542  -7.014 -32.936  0.00  0.00    +0.000 C 
ATOM     14  C23 UNL     1      32.566  -7.852 -33.685  0.00  0.00    +0.000 C 
ATOM     15  C24 UNL     1      32.078  -9.322 -33.737  0.00  0.00    +0.000 C 
ATOM     16  C25 UNL     1      30.584  -9.464 -34.188  0.00  0.00    +0.000 C 
BRANCH  16  17
ATOM     17  O18 UNL     1      29.886 -10.285 -33.275  0.00  0.00    +0.000 OA
ATOM     18  H43 UNL     1      28.993 -10.477 -33.665  0.00  0.00    +0.000 HD
ENDBRANCH  16  17
BRANCH  15  19
ATOM     19  O17 UNL     1      32.916 -10.099 -34.558  0.00  0.00    +0.000 OA
ATOM     20  H41 UNL     1      32.506 -10.124 -35.461  0.00  0.00    +0.000 HD
ENDBRANCH  15  19
BRANCH  14  21
ATOM     21  O16 UNL     1      33.822  -7.785 -33.056  0.00  0.00    +0.000 OA
ATOM     22  H39 UNL     1      33.657  -7.803 -32.079  0.00  0.00    +0.000 HD
ENDBRANCH  14  21
BRANCH  13  23
ATOM     23  C22 UNL     1      31.949  -6.087 -31.819  0.00  0.00    +0.000 C 
BRANCH  23  24
ATOM     24  O15 UNL     1      32.601  -6.800 -30.808  0.00  0.00    +0.000 OA
ATOM     25  H37 UNL     1      31.934  -6.944 -30.081  0.00  0.00    +0.000 HD
ENDBRANCH  23  24
ENDBRANCH  13  23
ENDBRANCH   9  11
ENDBRANCH   8   9
BRANCH   7  26
ATOM     26  O14 UNL     1      26.008  -9.890 -35.453  0.00  0.00    +0.000 OA
ATOM     27  H30 UNL     1      26.081 -10.673 -34.843  0.00  0.00    +0.000 HD
ENDBRANCH   7  26
BRANCH   6  28
ATOM     28  O13 UNL     1      28.181 -11.157 -37.748  0.00  0.00    +0.000 OA
ATOM     29  H28 UNL     1      28.360 -11.570 -36.863  0.00  0.00    +0.000 HD
ENDBRANCH   6  28
ENDBRANCH   1   5
BRANCH   1  30
ATOM     30  C4  UNL     1      27.774  -8.290 -40.723  0.00  0.00    +0.000 C 
ATOM     31  C5  UNL     1      26.847  -7.115 -40.304  0.00  0.00    +0.000 C 
ATOM     32  C6  UNL     1      25.522  -7.146 -41.087  0.00  0.00    +0.000 C 
ATOM     33  C7  UNL     1      25.799  -7.152 -42.621  0.00  0.00    +0.000 C 
ATOM     34  O11 UNL     1      27.089  -7.653 -42.960  0.00  0.00    +0.000 OA
ATOM     35  C14 UNL     1      27.445  -8.767 -42.162  0.00  0.00    +0.000 C 
BRANCH  32  36
ATOM     36  O4  UNL     1      24.784  -8.284 -40.709  0.00  0.00    +0.000 OA
ATOM     37  H10 UNL     1      23.997  -7.966 -40.198  0.00  0.00    +0.000 HD
ENDBRANCH  32  36
BRANCH  31  38
ATOM     38  O3  UNL     1      27.485  -5.884 -40.542  0.00  0.00    +0.000 OA
ATOM     39  H8  UNL     1      28.126  -6.027 -41.284  0.00  0.00    +0.000 HD
ENDBRANCH  31  38
BRANCH  35  40
ATOM     40  C15 UNL     1      28.648  -9.479 -42.797  0.00  0.00    +0.000 C 
BRANCH  40  41
ATOM     41  O12 UNL     1      29.092 -10.521 -41.973  0.00  0.00    +0.000 OA
ATOM     42  H26 UNL     1      30.076 -10.579 -42.091  0.00  0.00    +0.000 HD
ENDBRANCH  40  41
ENDBRANCH  35  40
BRANCH  33  43
ATOM     43  O5  UNL     1      24.799  -7.910 -43.291  0.00  0.00    +0.000 OA
BRANCH  43  44
ATOM     44  C8  UNL     1      24.105  -7.167 -44.283  0.00  0.00    +0.000 C 
ATOM     45  C9  UNL     1      24.566  -7.604 -45.694  0.00  0.00    +0.000 C 
ATOM     46  C10 UNL     1      23.576  -7.177 -46.811  0.00  0.00    +0.000 C 
ATOM     47  C11 UNL     1      22.414  -6.348 -46.233  0.00  0.00    +0.000 C 
ATOM     48  O9  UNL     1      21.749  -7.087 -45.227  0.00  0.00    +0.000 OA
ATOM     49  C12 UNL     1      22.579  -7.434 -44.114  0.00  0.00    +0.000 C 
BRANCH  47  50
ATOM     50  O8  UNL     1      21.503  -6.044 -47.258  0.00  0.00    +0.000 OA
ATOM     51  H18 UNL     1      20.722  -6.641 -47.129  0.00  0.00    +0.000 HD
ENDBRANCH  47  50
BRANCH  46  52
ATOM     52  O7  UNL     1      23.064  -8.329 -47.439  0.00  0.00    +0.000 OA
ATOM     53  H16 UNL     1      22.139  -8.120 -47.737  0.00  0.00    +0.000 HD
ENDBRANCH  46  52
BRANCH  45  54
ATOM     54  O6  UNL     1      25.855  -7.105 -45.967  0.00  0.00    +0.000 OA
ATOM     55  H14 UNL     1      26.491  -7.585 -45.371  0.00  0.00    +0.000 HD
ENDBRANCH  45  54
BRANCH  49  56
ATOM     56  C13 UNL     1      22.056  -6.738 -42.852  0.00  0.00    +0.000 C 
BRANCH  56  57
ATOM     57  O10 UNL     1      22.191  -7.585 -41.744  0.00  0.00    +0.000 OA
ATOM     58  H22 UNL     1      22.337  -8.501 -42.104  0.00  0.00    +0.000 HD
ENDBRANCH  56  57
ENDBRANCH  49  56
ENDBRANCH  43  44
ENDBRANCH  33  43
ENDBRANCH   1  30
TORSDOF 22
ENDMDL
MODEL 3
REMARK VINA RESULT:    -5.201      2.938      4.717
REMARK INTER + INTRA:         -12.421
REMARK INTER:                 -10.223
REMARK INTRA:                  -2.197
REMARK UNBOUND:                -2.506
REMARK  Name = resultss/4CJN/ligands/lig_198_t0.pdb
REMARK  23 active torsions:
REMARK  status: ('A' for Active; 'I' for Inactive)
REMARK    1  A    between atoms: C1_1  and  C2_2
REMARK    2  A    between atoms: C3_4  and  O2_5
REMARK    3  A    between atoms: O2_5  and  C4_6
REMARK    4  A    between atoms: C5_7  and  O3_8
REMARK    5  A    between atoms: C6_9  and  O4_10
REMARK    6  A    between atoms: C7_11  and  O5_12
REMARK    7  A    between atoms: O5_12  and  C8_13
REMARK    8  A    between atoms: C9_14  and  O6_15
REMARK    9  A    between atoms: C10_16  and  O7_17
REMARK   10  A    between atoms: C11_18  and  O8_19
REMARK   11  A    between atoms: C12_21  and  C13_22
REMARK   12  A    between atoms: C13_22  and  O10_23
REMARK   13  A    between atoms: C14_25  and  C15_26
REMARK   14  A    between atoms: C15_26  and  O12_27
REMARK   15  A    between atoms: C16_28  and  O13_29
REMARK   16  A    between atoms: C17_30  and  O14_31
REMARK   17  A    between atoms: C18_32  and  N1_33
REMARK   18  A    between atoms: N1_33  and  C19_34
REMARK   19  A    between atoms: C21_36  and  C22_37
REMARK   20  A    between atoms: C22_37  and  O15_38
REMARK   21  A    between atoms: C23_39  and  O16_40
REMARK   22  A    between atoms: C24_41  and  O17_42
REMARK   23  A    between atoms: C25_43  and  O18_44
REMARK                            x       y       z     vdW  Elec       q    Type
REMARK                         _______ _______ _______ _____ _____    ______ ____
ROOT
ATOM      1  O2  UNL     1      29.369  -7.836 -38.670  0.00  0.00    +0.000 OA
ENDROOT
BRANCH   1   5
ATOM      2  C1  UNL     1      26.736 -10.517 -40.431  0.00  0.00    +0.000 C 
ATOM      3  C2  UNL     1      27.517  -9.469 -41.236  0.00  0.00    +0.000 C 
ATOM      4  O1  UNL     1      28.636  -9.059 -40.464  0.00  0.00    +0.000 OA
ATOM      5  C3  UNL     1      28.340  -7.954 -39.639  0.00  0.00    +0.000 C 
ATOM      6  C16 UNL     1      28.314  -6.716 -40.541  0.00  0.00    +0.000 C 
ATOM      7  C17 UNL     1      27.252  -6.885 -41.664  0.00  0.00    +0.000 C 
ATOM      8  C18 UNL     1      26.592  -8.291 -41.759  0.00  0.00    +0.000 C 
BRANCH   8   9
ATOM      9  N1  UNL     1      26.188  -8.477 -43.174  0.00  0.00    +0.000 NA
ATOM     10  H32 UNL     1      26.063  -9.494 -43.385  0.00  0.00    +0.000 HD
BRANCH   9  11
ATOM     11  C19 UNL     1      25.011  -7.697 -43.601  0.00  0.00    +0.000 C 
ATOM     12  C20 UNL     1      24.868  -7.722 -45.109  0.00  0.00    +0.000 C 
ATOM     13  C21 UNL     1      23.733  -7.269 -45.674  0.00  0.00    +0.000 C 
ATOM     14  C23 UNL     1      22.641  -6.737 -44.761  0.00  0.00    +0.000 C 
ATOM     15  C24 UNL     1      22.391  -7.756 -43.621  0.00  0.00    +0.000 C 
ATOM     16  C25 UNL     1      23.708  -8.252 -42.932  0.00  0.00    +0.000 C 
BRANCH  16  17
ATOM     17  O18 UNL     1      23.716  -9.664 -42.878  0.00  0.00    +0.000 OA
ATOM     18  H43 UNL     1      23.382 -10.001 -43.750  0.00  0.00    +0.000 HD
ENDBRANCH  16  17
BRANCH  15  19
ATOM     19  O17 UNL     1      21.503  -7.231 -42.664  0.00  0.00    +0.000 OA
ATOM     20  H41 UNL     1      21.643  -7.736 -41.821  0.00  0.00    +0.000 HD
ENDBRANCH  15  19
BRANCH  14  21
ATOM     21  O16 UNL     1      21.451  -6.517 -45.477  0.00  0.00    +0.000 OA
ATOM     22  H39 UNL     1      21.713  -6.197 -46.379  0.00  0.00    +0.000 HD
ENDBRANCH  14  21
BRANCH  13  23
ATOM     23  C22 UNL     1      23.556  -7.310 -47.170  0.00  0.00    +0.000 C 
BRANCH  23  24
ATOM     24  O15 UNL     1      22.827  -8.443 -47.544  0.00  0.00    +0.000 OA
ATOM     25  H37 UNL     1      21.863  -8.219 -47.422  0.00  0.00    +0.000 HD
ENDBRANCH  23  24
ENDBRANCH  13  23
ENDBRANCH   9  11
ENDBRANCH   8   9
BRANCH   7  26
ATOM     26  O14 UNL     1      26.262  -5.883 -41.558  0.00  0.00    +0.000 OA
ATOM     27  H30 UNL     1      26.175  -5.653 -40.593  0.00  0.00    +0.000 HD
ENDBRANCH   7  26
BRANCH   6  28
ATOM     28  O13 UNL     1      29.576  -6.550 -41.145  0.00  0.00    +0.000 OA
ATOM     29  H28 UNL     1      29.542  -5.708 -41.672  0.00  0.00    +0.000 HD
ENDBRANCH   6  28
ENDBRANCH   1   5
BRANCH   1  30
ATOM     30  C4  UNL     1      29.564  -9.034 -37.925  0.00  0.00    +0.000 C 
ATOM     31  C5  UNL     1      28.523  -9.086 -36.772  0.00  0.00    +0.000 C 
ATOM     32  C6  UNL     1      29.113  -8.530 -35.464  0.00  0.00    +0.000 C 
ATOM     33  C7  UNL     1      30.426  -9.284 -35.099  0.00  0.00    +0.000 C 
ATOM     34  O11 UNL     1      31.064  -9.886 -36.221  0.00  0.00    +0.000 OA
ATOM     35  C14 UNL     1      31.010  -9.052 -37.365  0.00  0.00    +0.000 C 
BRANCH  32  36
ATOM     36  O4  UNL     1      29.355  -7.150 -35.612  0.00  0.00    +0.000 OA
ATOM     37  H10 UNL     1      28.791  -6.834 -36.362  0.00  0.00    +0.000 HD
ENDBRANCH  32  36
BRANCH  31  38
ATOM     38  O3  UNL     1      28.106 -10.412 -36.554  0.00  0.00    +0.000 OA
ATOM     39  H8  UNL     1      27.277 -10.547 -37.079  0.00  0.00    +0.000 HD
ENDBRANCH  31  38
BRANCH  35  40
ATOM     40  C15 UNL     1      32.004  -9.570 -38.414  0.00  0.00    +0.000 C 
BRANCH  40  41
ATOM     41  O12 UNL     1      31.324 -10.022 -39.552  0.00  0.00    +0.000 OA
ATOM     42  H26 UNL     1      30.356  -9.888 -39.378  0.00  0.00    +0.000 HD
ENDBRANCH  40  41
ENDBRANCH  35  40
BRANCH  33  43
ATOM     43  O5  UNL     1      31.331  -8.397 -34.452  0.00  0.00    +0.000 OA
BRANCH  43  44
ATOM     44  C8  UNL     1      31.916  -8.949 -33.281  0.00  0.00    +0.000 C 
ATOM     45  C9  UNL     1      31.010 -10.066 -32.710  0.00  0.00    +0.000 C 
ATOM     46  C10 UNL     1      31.756 -10.999 -31.718  0.00  0.00    +0.000 C 
ATOM     47  C11 UNL     1      33.202 -10.522 -31.491  0.00  0.00    +0.000 C 
ATOM     48  O9  UNL     1      33.886 -10.452 -32.727  0.00  0.00    +0.000 OA
ATOM     49  C12 UNL     1      33.309  -9.535 -33.661  0.00  0.00    +0.000 C 
BRANCH  47  50
ATOM     50  O8  UNL     1      33.865 -11.429 -30.648  0.00  0.00    +0.000 OA
ATOM     51  H18 UNL     1      33.172 -11.839 -30.071  0.00  0.00    +0.000 HD
ENDBRANCH  47  50
BRANCH  46  52
ATOM     52  O7  UNL     1      31.769 -12.308 -32.238  0.00  0.00    +0.000 OA
ATOM     53  H16 UNL     1      31.053 -12.362 -32.924  0.00  0.00    +0.000 HD
ENDBRANCH  46  52
BRANCH  45  54
ATOM     54  O6  UNL     1      29.871  -9.509 -32.095  0.00  0.00    +0.000 OA
ATOM     55  H14 UNL     1      29.325  -9.084 -32.810  0.00  0.00    +0.000 HD
ENDBRANCH  45  54
BRANCH  49  56
ATOM     56  C13 UNL     1      34.303  -8.401 -33.941  0.00  0.00    +0.000 C 
BRANCH  56  57
ATOM     57  O10 UNL     1      34.175  -7.965 -35.266  0.00  0.00    +0.000 OA
ATOM     58  H22 UNL     1      33.581  -8.619 -35.724  0.00  0.00    +0.000 HD
ENDBRANCH  56  57
ENDBRANCH  49  56
ENDBRANCH  43  44
ENDBRANCH  33  43
ENDBRANCH   1  30
TORSDOF 22
ENDMDL
MODEL 4
REMARK VINA RESULT:    -5.026      3.077      4.989
REMARK INTER + INTRA:         -12.085
REMARK INTER:                 -10.368
REMARK INTRA:                  -1.717
REMARK UNBOUND:                -2.506
REMARK  Name = resultss/4CJN/ligands/lig_198_t0.pdb
REMARK  23 active torsions:
REMARK  status: ('A' for Active; 'I' for Inactive)
REMARK    1  A    between atoms: C1_1  and  C2_2
REMARK    2  A    between atoms: C3_4  and  O2_5
REMARK    3  A    between atoms: O2_5  and  C4_6
REMARK    4  A    between atoms: C5_7  and  O3_8
REMARK    5  A    between atoms: C6_9  and  O4_10
REMARK    6  A    between atoms: C7_11  and  O5_12
REMARK    7  A    between atoms: O5_12  and  C8_13
REMARK    8  A    between atoms: C9_14  and  O6_15
REMARK    9  A    between atoms: C10_16  and  O7_17
REMARK   10  A    between atoms: C11_18  and  O8_19
REMARK   11  A    between atoms: C12_21  and  C13_22
REMARK   12  A    between atoms: C13_22  and  O10_23
REMARK   13  A    between atoms: C14_25  and  C15_26
REMARK   14  A    between atoms: C15_26  and  O12_27
REMARK   15  A    between atoms: C16_28  and  O13_29
REMARK   16  A    between atoms: C17_30  and  O14_31
REMARK   17  A    between atoms: C18_32  and  N1_33
REMARK   18  A    between atoms: N1_33  and  C19_34
REMARK   19  A    between atoms: C21_36  and  C22_37
REMARK   20  A    between atoms: C22_37  and  O15_38
REMARK   21  A    between atoms: C23_39  and  O16_40
REMARK   22  A    between atoms: C24_41  and  O17_42
REMARK   23  A    between atoms: C25_43  and  O18_44
REMARK                            x       y       z     vdW  Elec       q    Type
REMARK                         _______ _______ _______ _____ _____    ______ ____
ROOT
ATOM      1  O2  UNL     1      27.847 -10.188 -37.543  0.00  0.00    +0.000 OA
ENDROOT
BRANCH   1   5
ATOM      2  C1  UNL     1      25.651  -7.545 -39.870  0.00  0.00    +0.000 C 
ATOM      3  C2  UNL     1      25.896  -9.005 -40.278  0.00  0.00    +0.000 C 
ATOM      4  O1  UNL     1      26.237  -9.740 -39.111  0.00  0.00    +0.000 OA
ATOM      5  C3  UNL     1      27.627  -9.753 -38.875  0.00  0.00    +0.000 C 
ATOM      6  C16 UNL     1      28.241 -10.745 -39.867  0.00  0.00    +0.000 C 
ATOM      7  C17 UNL     1      27.919 -10.322 -41.328  0.00  0.00    +0.000 C 
ATOM      8  C18 UNL     1      26.921  -9.137 -41.480  0.00  0.00    +0.000 C 
BRANCH   8   9
ATOM      9  N1  UNL     1      26.241  -9.318 -42.786  0.00  0.00    +0.000 NA
ATOM     10  H32 UNL     1      25.818 -10.273 -42.844  0.00  0.00    +0.000 HD
BRANCH   9  11
ATOM     11  C19 UNL     1      25.254  -8.278 -43.132  0.00  0.00    +0.000 C 
ATOM     12  C20 UNL     1      25.229  -8.040 -44.628  0.00  0.00    +0.000 C 
ATOM     13  C21 UNL     1      24.238  -7.302 -45.164  0.00  0.00    +0.000 C 
ATOM     14  C23 UNL     1      23.186  -6.728 -44.229  0.00  0.00    +0.000 C 
ATOM     15  C24 UNL     1      22.674  -7.850 -43.291  0.00  0.00    +0.000 C 
ATOM     16  C25 UNL     1      23.826  -8.682 -42.631  0.00  0.00    +0.000 C 
BRANCH  16  17
ATOM     17  O18 UNL     1      23.585 -10.062 -42.815  0.00  0.00    +0.000 OA
ATOM     18  H43 UNL     1      23.378 -10.452 -41.926  0.00  0.00    +0.000 HD
ENDBRANCH  16  17
BRANCH  15  19
ATOM     19  O17 UNL     1      21.818  -7.327 -42.305  0.00  0.00    +0.000 OA
ATOM     20  H41 UNL     1      21.698  -8.029 -41.614  0.00  0.00    +0.000 HD
ENDBRANCH  15  19
BRANCH  14  21
ATOM     21  O16 UNL     1      22.113  -6.183 -44.956  0.00  0.00    +0.000 OA
ATOM     22  H39 UNL     1      21.872  -6.846 -45.654  0.00  0.00    +0.000 HD
ENDBRANCH  14  21
BRANCH  13  23
ATOM     23  C22 UNL     1      24.175  -7.075 -46.653  0.00  0.00    +0.000 C 
BRANCH  23  24
ATOM     24  O15 UNL     1      23.308  -7.995 -47.250  0.00  0.00    +0.000 OA
ATOM     25  H37 UNL     1      22.477  -7.498 -47.485  0.00  0.00    +0.000 HD
ENDBRANCH  23  24
ENDBRANCH  13  23
ENDBRANCH   9  11
ENDBRANCH   8   9
BRANCH   7  26
ATOM     26  O14 UNL     1      29.112 -10.056 -42.036  0.00  0.00    +0.000 OA
ATOM     27  H30 UNL     1      29.785  -9.740 -41.374  0.00  0.00    +0.000 HD
ENDBRANCH   7  26
BRANCH   6  28
ATOM     28  O13 UNL     1      27.697 -12.026 -39.646  0.00  0.00    +0.000 OA
ATOM     29  H28 UNL     1      27.713 -12.507 -40.515  0.00  0.00    +0.000 HD
ENDBRANCH   6  28
ENDBRANCH   1   5
BRANCH   1  30
ATOM     30  C4  UNL     1      28.170  -9.117 -36.660  0.00  0.00    +0.000 C 
ATOM     31  C5  UNL     1      29.316  -8.275 -37.288  0.00  0.00    +0.000 C 
ATOM     32  C6  UNL     1      30.690  -8.727 -36.764  0.00  0.00    +0.000 C 
ATOM     33  C7  UNL     1      30.718  -8.681 -35.207  0.00  0.00    +0.000 C 
ATOM     34  O11 UNL     1      29.425  -8.769 -34.616  0.00  0.00    +0.000 OA
ATOM     35  C14 UNL     1      28.602  -9.703 -35.291  0.00  0.00    +0.000 C 
BRANCH  32  36
ATOM     36  O4  UNL     1      30.960 -10.029 -37.230  0.00  0.00    +0.000 OA
ATOM     37  H10 UNL     1      31.588 -10.445 -36.585  0.00  0.00    +0.000 HD
ENDBRANCH  32  36
BRANCH  31  38
ATOM     38  O3  UNL     1      29.140  -6.913 -36.984  0.00  0.00    +0.000 OA
ATOM     39  H8  UNL     1      29.111  -6.837 -35.996  0.00  0.00    +0.000 HD
ENDBRANCH  31  38
BRANCH  35  40
ATOM     40  C15 UNL     1      27.381 -10.024 -34.417  0.00  0.00    +0.000 C 
BRANCH  40  41
ATOM     41  O12 UNL     1      26.230 -10.138 -35.206  0.00  0.00    +0.000 OA
ATOM     42  H26 UNL     1      25.464 -10.233 -34.582  0.00  0.00    +0.000 HD
ENDBRANCH  40  41
ENDBRANCH  35  40
BRANCH  33  43
ATOM     43  O5  UNL     1      31.547  -9.723 -34.706  0.00  0.00    +0.000 OA
BRANCH  43  44
ATOM     44  C8  UNL     1      32.501  -9.271 -33.755  0.00  0.00    +0.000 C 
ATOM     45  C9  UNL     1      32.949  -7.830 -34.096  0.00  0.00    +0.000 C 
ATOM     46  C10 UNL     1      33.633  -7.113 -32.900  0.00  0.00    +0.000 C 
ATOM     47  C11 UNL     1      33.765  -8.058 -31.691  0.00  0.00    +0.000 C 
ATOM     48  O9  UNL     1      32.491  -8.549 -31.321  0.00  0.00    +0.000 OA
ATOM     49  C12 UNL     1      31.839  -9.305 -32.345  0.00  0.00    +0.000 C 
BRANCH  47  50
ATOM     50  O8  UNL     1      34.320  -7.355 -30.609  0.00  0.00    +0.000 OA
ATOM     51  H18 UNL     1      33.588  -6.811 -30.220  0.00  0.00    +0.000 HD
ENDBRANCH  47  50
BRANCH  46  52
ATOM     52  O7  UNL     1      32.866  -5.989 -32.536  0.00  0.00    +0.000 OA
ATOM     53  H16 UNL     1      32.083  -5.953 -33.147  0.00  0.00    +0.000 HD
ENDBRANCH  46  52
BRANCH  45  54
ATOM     54  O6  UNL     1      33.801  -7.831 -35.217  0.00  0.00    +0.000 OA
ATOM     55  H14 UNL     1      33.229  -7.731 -36.025  0.00  0.00    +0.000 HD
ENDBRANCH  45  54
BRANCH  49  56
ATOM     56  C13 UNL     1      31.667 -10.755 -31.875  0.00  0.00    +0.000 C 
BRANCH  56  57
ATOM     57  O10 UNL     1      32.661 -11.565 -32.440  0.00  0.00    +0.000 OA
ATOM     58  H22 UNL     1      32.988 -12.161 -31.714  0.00  0.00    +0.000 HD
ENDBRANCH  56  57
ENDBRANCH  49  56
ENDBRANCH  43  44
ENDBRANCH  33  43
ENDBRANCH   1  30
TORSDOF 22
ENDMDL
MODEL 5
REMARK VINA RESULT:    -4.991      2.930     10.113
REMARK INTER + INTRA:         -12.019
REMARK INTER:                  -8.820
REMARK INTRA:                  -3.200
REMARK UNBOUND:                -2.506
REMARK  Name = resultss/4CJN/ligands/lig_198_t0.pdb
REMARK  23 active torsions:
REMARK  status: ('A' for Active; 'I' for Inactive)
REMARK    1  A    between atoms: C1_1  and  C2_2
REMARK    2  A    between atoms: C3_4  and  O2_5
REMARK    3  A    between atoms: O2_5  and  C4_6
REMARK    4  A    between atoms: C5_7  and  O3_8
REMARK    5  A    between atoms: C6_9  and  O4_10
REMARK    6  A    between atoms: C7_11  and  O5_12
REMARK    7  A    between atoms: O5_12  and  C8_13
REMARK    8  A    between atoms: C9_14  and  O6_15
REMARK    9  A    between atoms: C10_16  and  O7_17
REMARK   10  A    between atoms: C11_18  and  O8_19
REMARK   11  A    between atoms: C12_21  and  C13_22
REMARK   12  A    between atoms: C13_22  and  O10_23
REMARK   13  A    between atoms: C14_25  and  C15_26
REMARK   14  A    between atoms: C15_26  and  O12_27
REMARK   15  A    between atoms: C16_28  and  O13_29
REMARK   16  A    between atoms: C17_30  and  O14_31
REMARK   17  A    between atoms: C18_32  and  N1_33
REMARK   18  A    between atoms: N1_33  and  C19_34
REMARK   19  A    between atoms: C21_36  and  C22_37
REMARK   20  A    between atoms: C22_37  and  O15_38
REMARK   21  A    between atoms: C23_39  and  O16_40
REMARK   22  A    between atoms: C24_41  and  O17_42
REMARK   23  A    between atoms: C25_43  and  O18_44
REMARK                            x       y       z     vdW  Elec       q    Type
REMARK                         _______ _______ _______ _____ _____    ______ ____
ROOT
ATOM      1  O2  UNL     1      26.535  -8.723 -40.287  0.00  0.00    +0.000 OA
ENDROOT
BRANCH   1   5
ATOM      2  C1  UNL     1      28.373  -6.201 -37.552  0.00  0.00    +0.000 C 
ATOM      3  C2  UNL     1      29.163  -7.074 -38.539  0.00  0.00    +0.000 C 
ATOM      4  O1  UNL     1      28.298  -7.426 -39.609  0.00  0.00    +0.000 OA
ATOM      5  C3  UNL     1      27.607  -8.631 -39.363  0.00  0.00    +0.000 C 
ATOM      6  C16 UNL     1      28.603  -9.772 -39.587  0.00  0.00    +0.000 C 
ATOM      7  C17 UNL     1      29.827  -9.619 -38.641  0.00  0.00    +0.000 C 
ATOM      8  C18 UNL     1      29.886  -8.293 -37.827  0.00  0.00    +0.000 C 
BRANCH   8   9
ATOM      9  N1  UNL     1      31.319  -8.022 -37.560  0.00  0.00    +0.000 NA
ATOM     10  H32 UNL     1      31.654  -7.226 -38.150  0.00  0.00    +0.000 HD
BRANCH   9  11
ATOM     11  C19 UNL     1      31.667  -7.814 -36.141  0.00  0.00    +0.000 C 
ATOM     12  C20 UNL     1      30.470  -8.075 -35.251  0.00  0.00    +0.000 C 
ATOM     13  C21 UNL     1      30.642  -8.166 -33.918  0.00  0.00    +0.000 C 
ATOM     14  C23 UNL     1      32.047  -7.990 -33.365  0.00  0.00    +0.000 C 
ATOM     15  C24 UNL     1      33.025  -8.882 -34.171  0.00  0.00    +0.000 C 
ATOM     16  C25 UNL     1      32.856  -8.744 -35.722  0.00  0.00    +0.000 C 
BRANCH  16  17
ATOM     17  O18 UNL     1      32.740 -10.026 -36.305  0.00  0.00    +0.000 OA
ATOM     18  H43 UNL     1      31.773 -10.233 -36.387  0.00  0.00    +0.000 HD
ENDBRANCH  16  17
BRANCH  15  19
ATOM     19  O17 UNL     1      34.358  -8.629 -33.796  0.00  0.00    +0.000 OA
ATOM     20  H41 UNL     1      34.674  -7.855 -34.332  0.00  0.00    +0.000 HD
ENDBRANCH  15  19
BRANCH  14  21
ATOM     21  O16 UNL     1      32.095  -8.335 -32.002  0.00  0.00    +0.000 OA
ATOM     22  H39 UNL     1      33.053  -8.384 -31.751  0.00  0.00    +0.000 HD
ENDBRANCH  14  21
BRANCH  13  23
ATOM     23  C22 UNL     1      29.471  -8.452 -33.014  0.00  0.00    +0.000 C 
BRANCH  23  24
ATOM     24  O15 UNL     1      29.546  -9.757 -32.517  0.00  0.00    +0.000 OA
ATOM     25  H37 UNL     1      30.339  -9.790 -31.914  0.00  0.00    +0.000 HD
ENDBRANCH  23  24
ENDBRANCH  13  23
ENDBRANCH   9  11
ENDBRANCH   8   9
BRANCH   7  26
ATOM     26  O14 UNL     1      29.921 -10.732 -37.776  0.00  0.00    +0.000 OA
ATOM     27  H30 UNL     1      30.861 -11.059 -37.814  0.00  0.00    +0.000 HD
ENDBRANCH   7  26
BRANCH   6  28
ATOM     28  O13 UNL     1      29.064  -9.738 -40.918  0.00  0.00    +0.000 OA
ATOM     29  H28 UNL     1      29.245  -8.788 -41.143  0.00  0.00    +0.000 HD
ENDBRANCH   6  28
ENDBRANCH   1   5
BRANCH   1  30
ATOM     30  C4  UNL     1      26.061  -7.448 -40.710  0.00  0.00    +0.000 C 
ATOM     31  C5  UNL     1      24.624  -7.236 -40.155  0.00  0.00    +0.000 C 
ATOM     32  C6  UNL     1      23.562  -7.644 -41.192  0.00  0.00    +0.000 C 
ATOM     33  C7  UNL     1      23.789  -6.879 -42.530  0.00  0.00    +0.000 C 
ATOM     34  O11 UNL     1      25.130  -6.430 -42.703  0.00  0.00    +0.000 OA
ATOM     35  C14 UNL     1      26.068  -7.394 -42.260  0.00  0.00    +0.000 C 
BRANCH  32  36
ATOM     36  O4  UNL     1      23.621  -9.036 -41.397  0.00  0.00    +0.000 OA
ATOM     37  H10 UNL     1      23.286  -9.211 -42.312  0.00  0.00    +0.000 HD
ENDBRANCH  32  36
BRANCH  31  38
ATOM     38  O3  UNL     1      24.430  -5.885 -39.814  0.00  0.00    +0.000 OA
ATOM     39  H8  UNL     1      25.004  -5.697 -39.029  0.00  0.00    +0.000 HD
ENDBRANCH  31  38
BRANCH  35  40
ATOM     40  C15 UNL     1      27.459  -7.027 -42.794  0.00  0.00    +0.000 C 
BRANCH  40  41
ATOM     41  O12 UNL     1      28.191  -8.184 -43.091  0.00  0.00    +0.000 OA
ATOM     42  H26 UNL     1      28.348  -8.179 -44.071  0.00  0.00    +0.000 HD
ENDBRANCH  40  41
ENDBRANCH  35  40
BRANCH  33  43
ATOM     43  O5  UNL     1      23.413  -7.701 -43.629  0.00  0.00    +0.000 OA
BRANCH  43  44
ATOM     44  C8  UNL     1      23.179  -6.967 -44.823  0.00  0.00    +0.000 C 
ATOM     45  C9  UNL     1      24.193  -7.390 -45.912  0.00  0.00    +0.000 C 
ATOM     46  C10 UNL     1      23.748  -6.978 -47.342  0.00  0.00    +0.000 C 
ATOM     47  C11 UNL     1      22.436  -6.174 -47.302  0.00  0.00    +0.000 C 
ATOM     48  O9  UNL     1      21.427  -6.929 -46.659  0.00  0.00    +0.000 OA
ATOM     49  C12 UNL     1      21.727  -7.264 -45.301  0.00  0.00    +0.000 C 
BRANCH  47  50
ATOM     50  O8  UNL     1      22.027  -5.883 -48.614  0.00  0.00    +0.000 OA
ATOM     51  H18 UNL     1      22.711  -5.275 -48.996  0.00  0.00    +0.000 HD
ENDBRANCH  47  50
BRANCH  46  52
ATOM     52  O7  UNL     1      23.565  -8.137 -48.120  0.00  0.00    +0.000 OA
ATOM     53  H16 UNL     1      23.203  -8.843 -47.521  0.00  0.00    +0.000 HD
ENDBRANCH  46  52
BRANCH  45  54
ATOM     54  O6  UNL     1      25.469  -6.866 -45.628  0.00  0.00    +0.000 OA
ATOM     55  H14 UNL     1      25.503  -6.682 -44.651  0.00  0.00    +0.000 HD
ENDBRANCH  45  54
BRANCH  49  56
ATOM     56  C13 UNL     1      20.713  -6.583 -44.373  0.00  0.00    +0.000 C 
BRANCH  56  57
ATOM     57  O10 UNL     1      20.413  -7.421 -43.291  0.00  0.00    +0.000 OA
ATOM     58  H22 UNL     1      19.539  -7.113 -42.928  0.00  0.00    +0.000 HD
ENDBRANCH  56  57
ENDBRANCH  49  56
ENDBRANCH  43  44
ENDBRANCH  33  43
ENDBRANCH   1  30
TORSDOF 22
ENDMDL
MODEL 6
REMARK VINA RESULT:    -4.935      2.983      4.582
REMARK INTER + INTRA:         -11.912
REMARK INTER:                  -9.564
REMARK INTRA:                  -2.349
REMARK UNBOUND:                -2.506
REMARK  Name = resultss/4CJN/ligands/lig_198_t0.pdb
REMARK  23 active torsions:
REMARK  status: ('A' for Active; 'I' for Inactive)
REMARK    1  A    between atoms: C1_1  and  C2_2
REMARK    2  A    between atoms: C3_4  and  O2_5
REMARK    3  A    between atoms: O2_5  and  C4_6
REMARK    4  A    between atoms: C5_7  and  O3_8
REMARK    5  A    between atoms: C6_9  and  O4_10
REMARK    6  A    between atoms: C7_11  and  O5_12
REMARK    7  A    between atoms: O5_12  and  C8_13
REMARK    8  A    between atoms: C9_14  and  O6_15
REMARK    9  A    between atoms: C10_16  and  O7_17
REMARK   10  A    between atoms: C11_18  and  O8_19
REMARK   11  A    between atoms: C12_21  and  C13_22
REMARK   12  A    between atoms: C13_22  and  O10_23
REMARK   13  A    between atoms: C14_25  and  C15_26
REMARK   14  A    between atoms: C15_26  and  O12_27
REMARK   15  A    between atoms: C16_28  and  O13_29
REMARK   16  A    between atoms: C17_30  and  O14_31
REMARK   17  A    between atoms: C18_32  and  N1_33
REMARK   18  A    between atoms: N1_33  and  C19_34
REMARK   19  A    between atoms: C21_36  and  C22_37
REMARK   20  A    between atoms: C22_37  and  O15_38
REMARK   21  A    between atoms: C23_39  and  O16_40
REMARK   22  A    between atoms: C24_41  and  O17_42
REMARK   23  A    between atoms: C25_43  and  O18_44
REMARK                            x       y       z     vdW  Elec       q    Type
REMARK                         _______ _______ _______ _____ _____    ______ ____
ROOT
ATOM      1  O2  UNL     1      28.678  -7.887 -38.692  0.00  0.00    +0.000 OA
ENDROOT
BRANCH   1   5
ATOM      2  C1  UNL     1      28.871  -7.830 -42.837  0.00  0.00    +0.000 C 
ATOM      3  C2  UNL     1      27.549  -7.978 -42.068  0.00  0.00    +0.000 C 
ATOM      4  O1  UNL     1      27.747  -7.492 -40.749  0.00  0.00    +0.000 OA
ATOM      5  C3  UNL     1      28.175  -8.506 -39.866  0.00  0.00    +0.000 C 
ATOM      6  C16 UNL     1      26.948  -9.359 -39.534  0.00  0.00    +0.000 C 
ATOM      7  C17 UNL     1      26.336  -9.960 -40.831  0.00  0.00    +0.000 C 
ATOM      8  C18 UNL     1      26.951  -9.444 -42.165  0.00  0.00    +0.000 C 
BRANCH   8   9
ATOM      9  N1  UNL     1      25.888  -9.553 -43.193  0.00  0.00    +0.000 NA
ATOM     10  H32 UNL     1      25.355 -10.445 -43.070  0.00  0.00    +0.000 HD
BRANCH   9  11
ATOM     11  C19 UNL     1      24.976  -8.398 -43.283  0.00  0.00    +0.000 C 
ATOM     12  C20 UNL     1      24.664  -8.071 -44.729  0.00  0.00    +0.000 C 
ATOM     13  C21 UNL     1      23.673  -7.204 -45.013  0.00  0.00    +0.000 C 
ATOM     14  C23 UNL     1      22.914  -6.580 -43.854  0.00  0.00    +0.000 C 
ATOM     15  C24 UNL     1      22.485  -7.695 -42.868  0.00  0.00    +0.000 C 
ATOM     16  C25 UNL     1      23.648  -8.679 -42.501  0.00  0.00    +0.000 C 
BRANCH  16  17
ATOM     17  O18 UNL     1      23.218 -10.014 -42.677  0.00  0.00    +0.000 OA
ATOM     18  H43 UNL     1      23.344 -10.487 -41.814  0.00  0.00    +0.000 HD
ENDBRANCH  16  17
BRANCH  15  19
ATOM     19  O17 UNL     1      21.921  -7.145 -41.703  0.00  0.00    +0.000 OA
ATOM     20  H41 UNL     1      22.263  -6.218 -41.617  0.00  0.00    +0.000 HD
ENDBRANCH  15  19
BRANCH  14  21
ATOM     21  O16 UNL     1      21.781  -5.885 -44.314  0.00  0.00    +0.000 OA
ATOM     22  H39 UNL     1      21.992  -4.918 -44.253  0.00  0.00    +0.000 HD
ENDBRANCH  14  21
BRANCH  13  23
ATOM     23  C22 UNL     1      23.325  -6.885 -46.444  0.00  0.00    +0.000 C 
BRANCH  23  24
ATOM     24  O15 UNL     1      23.242  -8.059 -47.199  0.00  0.00    +0.000 OA
ATOM     25  H37 UNL     1      22.340  -8.064 -47.625  0.00  0.00    +0.000 HD
ENDBRANCH  23  24
ENDBRANCH  13  23
ENDBRANCH   9  11
ENDBRANCH   8   9
BRANCH   7  26
ATOM     26  O14 UNL     1      26.376 -11.371 -40.784  0.00  0.00    +0.000 OA
ATOM     27  H30 UNL     1      27.278 -11.652 -41.099  0.00  0.00    +0.000 HD
ENDBRANCH   7  26
BRANCH   6  28
ATOM     28  O13 UNL     1      25.970  -8.553 -38.915  0.00  0.00    +0.000 OA
ATOM     29  H28 UNL     1      25.198  -8.496 -39.537  0.00  0.00    +0.000 HD
ENDBRANCH   6  28
ENDBRANCH   1   5
BRANCH   1  30
ATOM     30  C4  UNL     1      29.956  -8.387 -38.311  0.00  0.00    +0.000 C 
ATOM     31  C5  UNL     1      29.768  -9.744 -37.576  0.00  0.00    +0.000 C 
ATOM     32  C6  UNL     1      29.720  -9.549 -36.051  0.00  0.00    +0.000 C 
ATOM     33  C7  UNL     1      30.991  -8.792 -35.561  0.00  0.00    +0.000 C 
ATOM     34  O11 UNL     1      31.608  -8.007 -36.578  0.00  0.00    +0.000 OA
ATOM     35  C14 UNL     1      30.650  -7.351 -37.388  0.00  0.00    +0.000 C 
BRANCH  32  36
ATOM     36  O4  UNL     1      28.553  -8.837 -35.709  0.00  0.00    +0.000 OA
ATOM     37  H10 UNL     1      28.634  -7.935 -36.108  0.00  0.00    +0.000 HD
ENDBRANCH  32  36
BRANCH  31  38
ATOM     38  O3  UNL     1      30.827 -10.616 -37.889  0.00  0.00    +0.000 OA
ATOM     39  H8  UNL     1      31.490 -10.544 -37.155  0.00  0.00    +0.000 HD
ENDBRANCH  31  38
BRANCH  35  40
ATOM     40  C15 UNL     1      31.349  -6.259 -38.210  0.00  0.00    +0.000 C 
BRANCH  40  41
ATOM     41  O12 UNL     1      31.242  -6.533 -39.580  0.00  0.00    +0.000 OA
ATOM     42  H26 UNL     1      30.725  -7.375 -39.663  0.00  0.00    +0.000 HD
ENDBRANCH  40  41
ENDBRANCH  35  40
BRANCH  33  43
ATOM     43  O5  UNL     1      30.666  -7.966 -34.449  0.00  0.00    +0.000 OA
BRANCH  43  44
ATOM     44  C8  UNL     1      31.330  -8.349 -33.254  0.00  0.00    +0.000 C 
ATOM     45  C9  UNL     1      31.111  -9.857 -32.984  0.00  0.00    +0.000 C 
ATOM     46  C10 UNL     1      32.134 -10.442 -31.972  0.00  0.00    +0.000 C 
ATOM     47  C11 UNL     1      33.065  -9.344 -31.428  0.00  0.00    +0.000 C 
ATOM     48  O9  UNL     1      33.729  -8.700 -32.499  0.00  0.00    +0.000 OA
ATOM     49  C12 UNL     1      32.850  -8.052 -33.424  0.00  0.00    +0.000 C 
BRANCH  47  50
ATOM     50  O8  UNL     1      34.020  -9.922 -30.576  0.00  0.00    +0.000 OA
ATOM     51  H18 UNL     1      33.517 -10.353 -29.838  0.00  0.00    +0.000 HD
ENDBRANCH  47  50
BRANCH  46  52
ATOM     52  O7  UNL     1      32.902 -11.433 -32.614  0.00  0.00    +0.000 OA
ATOM     53  H16 UNL     1      33.126 -11.094 -33.521  0.00  0.00    +0.000 HD
ENDBRANCH  46  52
BRANCH  45  54
ATOM     54  O6  UNL     1      29.795 -10.091 -32.540  0.00  0.00    +0.000 OA
ATOM     55  H14 UNL     1      29.181  -9.647 -33.184  0.00  0.00    +0.000 HD
ENDBRANCH  45  54
BRANCH  49  56
ATOM     56  C13 UNL     1      33.102  -6.540 -33.391  0.00  0.00    +0.000 C 
BRANCH  56  57
ATOM     57  O10 UNL     1      32.810  -5.976 -34.640  0.00  0.00    +0.000 OA
ATOM     58  H22 UNL     1      33.539  -5.328 -34.836  0.00  0.00    +0.000 HD
ENDBRANCH  56  57
ENDBRANCH  49  56
ENDBRANCH  43  44
ENDBRANCH  33  43
ENDBRANCH   1  30
TORSDOF 22
ENDMDL
MODEL 7
REMARK VINA RESULT:    -4.790      1.372      2.514
REMARK INTER + INTRA:         -11.637
REMARK INTER:                 -10.466
REMARK INTRA:                  -1.170
REMARK UNBOUND:                -2.506
REMARK  Name = resultss/4CJN/ligands/lig_198_t0.pdb
REMARK  23 active torsions:
REMARK  status: ('A' for Active; 'I' for Inactive)
REMARK    1  A    between atoms: C1_1  and  C2_2
REMARK    2  A    between atoms: C3_4  and  O2_5
REMARK    3  A    between atoms: O2_5  and  C4_6
REMARK    4  A    between atoms: C5_7  and  O3_8
REMARK    5  A    between atoms: C6_9  and  O4_10
REMARK    6  A    between atoms: C7_11  and  O5_12
REMARK    7  A    between atoms: O5_12  and  C8_13
REMARK    8  A    between atoms: C9_14  and  O6_15
REMARK    9  A    between atoms: C10_16  and  O7_17
REMARK   10  A    between atoms: C11_18  and  O8_19
REMARK   11  A    between atoms: C12_21  and  C13_22
REMARK   12  A    between atoms: C13_22  and  O10_23
REMARK   13  A    between atoms: C14_25  and  C15_26
REMARK   14  A    between atoms: C15_26  and  O12_27
REMARK   15  A    between atoms: C16_28  and  O13_29
REMARK   16  A    between atoms: C17_30  and  O14_31
REMARK   17  A    between atoms: C18_32  and  N1_33
REMARK   18  A    between atoms: N1_33  and  C19_34
REMARK   19  A    between atoms: C21_36  and  C22_37
REMARK   20  A    between atoms: C22_37  and  O15_38
REMARK   21  A    between atoms: C23_39  and  O16_40
REMARK   22  A    between atoms: C24_41  and  O17_42
REMARK   23  A    between atoms: C25_43  and  O18_44
REMARK                            x       y       z     vdW  Elec       q    Type
REMARK                         _______ _______ _______ _____ _____    ______ ____
ROOT
ATOM      1  O2  UNL     1      29.737  -8.497 -39.182  0.00  0.00    +0.000 OA
ENDROOT
BRANCH   1   5
ATOM      2  C1  UNL     1      26.775 -10.800 -40.954  0.00  0.00    +0.000 C 
ATOM      3  C2  UNL     1      27.600  -9.765 -41.733  0.00  0.00    +0.000 C 
ATOM      4  O1  UNL     1      28.794  -9.513 -41.007  0.00  0.00    +0.000 OA
ATOM      5  C3  UNL     1      28.648  -8.452 -40.090  0.00  0.00    +0.000 C 
ATOM      6  C16 UNL     1      28.682  -7.152 -40.898  0.00  0.00    +0.000 C 
ATOM      7  C17 UNL     1      27.546  -7.143 -41.960  0.00  0.00    +0.000 C 
ATOM      8  C18 UNL     1      26.757  -8.476 -42.112  0.00  0.00    +0.000 C 
BRANCH   8   9
ATOM      9  N1  UNL     1      26.257  -8.518 -43.507  0.00  0.00    +0.000 NA
ATOM     10  H32 UNL     1      26.145  -9.509 -43.822  0.00  0.00    +0.000 HD
BRANCH   9  11
ATOM     11  C19 UNL     1      25.032  -7.738 -43.762  0.00  0.00    +0.000 C 
ATOM     12  C20 UNL     1      24.704  -7.720 -45.240  0.00  0.00    +0.000 C 
ATOM     13  C21 UNL     1      23.505  -7.261 -45.647  0.00  0.00    +0.000 C 
ATOM     14  C23 UNL     1      22.531  -6.767 -44.591  0.00  0.00    +0.000 C 
ATOM     15  C24 UNL     1      22.430  -7.822 -43.460  0.00  0.00    +0.000 C 
ATOM     16  C25 UNL     1      23.824  -8.325 -42.955  0.00  0.00    +0.000 C 
BRANCH  16  17
ATOM     17  O18 UNL     1      23.848  -9.738 -42.945  0.00  0.00    +0.000 OA
ATOM     18  H43 UNL     1      23.942 -10.031 -42.001  0.00  0.00    +0.000 HD
ENDBRANCH  16  17
BRANCH  15  19
ATOM     19  O17 UNL     1      21.663  -7.334 -42.386  0.00  0.00    +0.000 OA
ATOM     20  H41 UNL     1      20.952  -6.756 -42.768  0.00  0.00    +0.000 HD
ENDBRANCH  15  19
BRANCH  14  21
ATOM     21  O16 UNL     1      21.260  -6.538 -45.148  0.00  0.00    +0.000 OA
ATOM     22  H39 UNL     1      21.217  -5.574 -45.380  0.00  0.00    +0.000 HD
ENDBRANCH  14  21
BRANCH  13  23
ATOM     23  C22 UNL     1      23.145  -7.259 -47.111  0.00  0.00    +0.000 C 
BRANCH  23  24
ATOM     24  O15 UNL     1      23.216  -8.555 -47.632  0.00  0.00    +0.000 OA
ATOM     25  H37 UNL     1      22.278  -8.867 -47.759  0.00  0.00    +0.000 HD
ENDBRANCH  23  24
ENDBRANCH  13  23
ENDBRANCH   9  11
ENDBRANCH   8   9
BRANCH   7  26
ATOM     26  O14 UNL     1      26.660  -6.070 -41.721  0.00  0.00    +0.000 OA
ATOM     27  H30 UNL     1      26.037  -6.021 -42.497  0.00  0.00    +0.000 HD
ENDBRANCH   7  26
BRANCH   6  28
ATOM     28  O13 UNL     1      29.917  -7.050 -41.569  0.00  0.00    +0.000 OA
ATOM     29  H28 UNL     1      30.479  -7.813 -41.271  0.00  0.00    +0.000 HD
ENDBRANCH   6  28
ENDBRANCH   1   5
BRANCH   1  30
ATOM     30  C4  UNL     1      29.448  -9.255 -38.011  0.00  0.00    +0.000 C 
ATOM     31  C5  UNL     1      27.932  -9.599 -37.996  0.00  0.00    +0.000 C 
ATOM     32  C6  UNL     1      27.137  -8.573 -37.169  0.00  0.00    +0.000 C 
ATOM     33  C7  UNL     1      27.725  -8.466 -35.730  0.00  0.00    +0.000 C 
ATOM     34  O11 UNL     1      29.088  -8.869 -35.645  0.00  0.00    +0.000 OA
ATOM     35  C14 UNL     1      29.838  -8.424 -36.761  0.00  0.00    +0.000 C 
BRANCH  32  36
ATOM     36  O4  UNL     1      27.173  -7.323 -37.817  0.00  0.00    +0.000 OA
ATOM     37  H10 UNL     1      26.970  -7.484 -38.773  0.00  0.00    +0.000 HD
ENDBRANCH  32  36
BRANCH  31  38
ATOM     38  O3  UNL     1      27.730 -10.879 -37.447  0.00  0.00    +0.000 OA
ATOM     39  H8  UNL     1      26.993 -10.800 -36.789  0.00  0.00    +0.000 HD
ENDBRANCH  31  38
BRANCH  35  40
ATOM     40  C15 UNL     1      31.335  -8.561 -36.451  0.00  0.00    +0.000 C 
BRANCH  40  41
ATOM     41  O12 UNL     1      32.099  -7.914 -37.430  0.00  0.00    +0.000 OA
ATOM     42  H26 UNL     1      31.982  -8.429 -38.270  0.00  0.00    +0.000 HD
ENDBRANCH  40  41
ENDBRANCH  35  40
BRANCH  33  43
ATOM     43  O5  UNL     1      27.587  -7.134 -35.248  0.00  0.00    +0.000 OA
BRANCH  43  44
ATOM     44  C8  UNL     1      26.440  -6.950 -34.431  0.00  0.00    +0.000 C 
ATOM     45  C9  UNL     1      25.156  -7.050 -35.288  0.00  0.00    +0.000 C 
ATOM     46  C10 UNL     1      23.881  -7.296 -34.436  0.00  0.00    +0.000 C 
ATOM     47  C11 UNL     1      24.212  -7.298 -32.933  0.00  0.00    +0.000 C 
ATOM     48  O9  UNL     1      25.197  -8.275 -32.657  0.00  0.00    +0.000 OA
ATOM     49  C12 UNL     1      26.438  -8.057 -33.335  0.00  0.00    +0.000 C 
BRANCH  47  50
ATOM     50  O8  UNL     1      23.051  -7.596 -32.200  0.00  0.00    +0.000 OA
ATOM     51  H18 UNL     1      23.135  -8.540 -31.909  0.00  0.00    +0.000 HD
ENDBRANCH  47  50
BRANCH  46  52
ATOM     52  O7  UNL     1      23.320  -8.537 -34.795  0.00  0.00    +0.000 OA
ATOM     53  H16 UNL     1      22.334  -8.420 -34.826  0.00  0.00    +0.000 HD
ENDBRANCH  46  52
BRANCH  45  54
ATOM     54  O6  UNL     1      25.000  -5.894 -36.078  0.00  0.00    +0.000 OA
ATOM     55  H14 UNL     1      25.186  -6.152 -37.021  0.00  0.00    +0.000 HD
ENDBRANCH  45  54
BRANCH  49  56
ATOM     56  C13 UNL     1      27.541  -7.785 -32.304  0.00  0.00    +0.000 C 
BRANCH  56  57
ATOM     57  O10 UNL     1      28.702  -8.491 -32.645  0.00  0.00    +0.000 OA
ATOM     58  H22 UNL     1      28.580  -8.804 -33.581  0.00  0.00    +0.000 HD
ENDBRANCH  56  57
ENDBRANCH  49  56
ENDBRANCH  43  44
ENDBRANCH  33  43
ENDBRANCH   1  30
TORSDOF 22
ENDMDL
MODEL 8
REMARK VINA RESULT:    -4.573      3.487     10.200
REMARK INTER + INTRA:         -11.222
REMARK INTER:                  -9.214
REMARK INTRA:                  -2.008
REMARK UNBOUND:                -2.506
REMARK  Name = resultss/4CJN/ligands/lig_198_t0.pdb
REMARK  23 active torsions:
REMARK  status: ('A' for Active; 'I' for Inactive)
REMARK    1  A    between atoms: C1_1  and  C2_2
REMARK    2  A    between atoms: C3_4  and  O2_5
REMARK    3  A    between atoms: O2_5  and  C4_6
REMARK    4  A    between atoms: C5_7  and  O3_8
REMARK    5  A    between atoms: C6_9  and  O4_10
REMARK    6  A    between atoms: C7_11  and  O5_12
REMARK    7  A    between atoms: O5_12  and  C8_13
REMARK    8  A    between atoms: C9_14  and  O6_15
REMARK    9  A    between atoms: C10_16  and  O7_17
REMARK   10  A    between atoms: C11_18  and  O8_19
REMARK   11  A    between atoms: C12_21  and  C13_22
REMARK   12  A    between atoms: C13_22  and  O10_23
REMARK   13  A    between atoms: C14_25  and  C15_26
REMARK   14  A    between atoms: C15_26  and  O12_27
REMARK   15  A    between atoms: C16_28  and  O13_29
REMARK   16  A    between atoms: C17_30  and  O14_31
REMARK   17  A    between atoms: C18_32  and  N1_33
REMARK   18  A    between atoms: N1_33  and  C19_34
REMARK   19  A    between atoms: C21_36  and  C22_37
REMARK   20  A    between atoms: C22_37  and  O15_38
REMARK   21  A    between atoms: C23_39  and  O16_40
REMARK   22  A    between atoms: C24_41  and  O17_42
REMARK   23  A    between atoms: C25_43  and  O18_44
REMARK                            x       y       z     vdW  Elec       q    Type
REMARK                         _______ _______ _______ _____ _____    ______ ____
ROOT
ATOM      1  O2  UNL     1      29.667  -9.285 -39.842  0.00  0.00    +0.000 OA
ENDROOT
BRANCH   1   5
ATOM      2  C1  UNL     1      33.481  -9.935 -38.343  0.00  0.00    +0.000 C 
ATOM      3  C2  UNL     1      32.289  -9.567 -37.448  0.00  0.00    +0.000 C 
ATOM      4  O1  UNL     1      31.095  -9.879 -38.150  0.00  0.00    +0.000 OA
ATOM      5  C3  UNL     1      30.630  -8.794 -38.923  0.00  0.00    +0.000 C 
ATOM      6  C16 UNL     1      29.984  -7.799 -37.955  0.00  0.00    +0.000 C 
ATOM      7  C17 UNL     1      31.013  -7.333 -36.887  0.00  0.00    +0.000 C 
ATOM      8  C18 UNL     1      32.378  -8.082 -36.898  0.00  0.00    +0.000 C 
BRANCH   8   9
ATOM      9  N1  UNL     1      32.906  -8.024 -35.513  0.00  0.00    +0.000 NA
ATOM     10  H32 UNL     1      32.764  -7.069 -35.111  0.00  0.00    +0.000 HD
BRANCH   9  11
ATOM     11  C19 UNL     1      32.398  -9.065 -34.600  0.00  0.00    +0.000 C 
ATOM     12  C20 UNL     1      33.500  -9.563 -33.688  0.00  0.00    +0.000 C 
ATOM     13  C21 UNL     1      33.187 -10.341 -32.634  0.00  0.00    +0.000 C 
ATOM     14  C23 UNL     1      31.725 -10.694 -32.415  0.00  0.00    +0.000 C 
ATOM     15  C24 UNL     1      30.872  -9.403 -32.497  0.00  0.00    +0.000 C 
ATOM     16  C25 UNL     1      31.205  -8.518 -33.746  0.00  0.00    +0.000 C 
BRANCH  16  17
ATOM     17  O18 UNL     1      31.429  -7.183 -33.341  0.00  0.00    +0.000 OA
ATOM     18  H43 UNL     1      32.036  -6.765 -34.005  0.00  0.00    +0.000 HD
ENDBRANCH  16  17
BRANCH  15  19
ATOM     19  O17 UNL     1      29.499  -9.706 -32.459  0.00  0.00    +0.000 OA
ATOM     20  H41 UNL     1      29.097  -9.362 -33.299  0.00  0.00    +0.000 HD
ENDBRANCH  15  19
BRANCH  14  21
ATOM     21  O16 UNL     1      31.541 -11.312 -31.165  0.00  0.00    +0.000 OA
ATOM     22  H39 UNL     1      30.672 -11.789 -31.205  0.00  0.00    +0.000 HD
ENDBRANCH  14  21
BRANCH  13  23
ATOM     23  C22 UNL     1      34.262 -10.825 -31.696  0.00  0.00    +0.000 C 
BRANCH  23  24
ATOM     24  O15 UNL     1      34.170 -10.165 -30.466  0.00  0.00    +0.000 OA
ATOM     25  H37 UNL     1      34.565  -9.259 -30.596  0.00  0.00    +0.000 HD
ENDBRANCH  23  24
ENDBRANCH  13  23
ENDBRANCH   9  11
ENDBRANCH   8   9
BRANCH   7  26
ATOM     26  O14 UNL     1      31.216  -5.939 -36.977  0.00  0.00    +0.000 OA
ATOM     27  H30 UNL     1      32.011  -5.718 -36.419  0.00  0.00    +0.000 HD
ENDBRANCH   7  26
BRANCH   6  28
ATOM     28  O13 UNL     1      28.907  -8.422 -37.292  0.00  0.00    +0.000 OA
ATOM     29  H28 UNL     1      28.121  -7.821 -37.377  0.00  0.00    +0.000 HD
ENDBRANCH   6  28
ENDBRANCH   1   5
BRANCH   1  30
ATOM     30  C4  UNL     1      29.712  -8.614 -41.098  0.00  0.00    +0.000 C 
ATOM     31  C5  UNL     1      29.086  -7.201 -40.937  0.00  0.00    +0.000 C 
ATOM     32  C6  UNL     1      27.598  -7.204 -41.329  0.00  0.00    +0.000 C 
ATOM     33  C7  UNL     1      27.420  -7.761 -42.774  0.00  0.00    +0.000 C 
ATOM     34  O11 UNL     1      28.491  -8.602 -43.191  0.00  0.00    +0.000 OA
ATOM     35  C14 UNL     1      28.931  -9.449 -42.146  0.00  0.00    +0.000 C 
BRANCH  32  36
ATOM     36  O4  UNL     1      26.874  -7.981 -40.403  0.00  0.00    +0.000 OA
ATOM     37  H10 UNL     1      26.142  -8.424 -40.903  0.00  0.00    +0.000 HD
ENDBRANCH  32  36
BRANCH  31  38
ATOM     38  O3  UNL     1      29.766  -6.273 -41.747  0.00  0.00    +0.000 OA
ATOM     39  H8  UNL     1      29.081  -5.799 -42.285  0.00  0.00    +0.000 HD
ENDBRANCH  31  38
BRANCH  35  40
ATOM     40  C15 UNL     1      29.811 -10.561 -42.735  0.00  0.00    +0.000 C 
BRANCH  40  41
ATOM     41  O12 UNL     1      30.651 -11.094 -41.749  0.00  0.00    +0.000 OA
ATOM     42  H26 UNL     1      30.249 -10.858 -40.873  0.00  0.00    +0.000 HD
ENDBRANCH  40  41
ENDBRANCH  35  40
BRANCH  33  43
ATOM     43  O5  UNL     1      26.188  -8.467 -42.873  0.00  0.00    +0.000 OA
BRANCH  43  44
ATOM     44  C8  UNL     1      25.125  -7.671 -43.375  0.00  0.00    +0.000 C 
ATOM     45  C9  UNL     1      25.217  -7.572 -44.917  0.00  0.00    +0.000 C 
ATOM     46  C10 UNL     1      23.888  -7.106 -45.571  0.00  0.00    +0.000 C 
ATOM     47  C11 UNL     1      22.829  -6.781 -44.502  0.00  0.00    +0.000 C 
ATOM     48  O9  UNL     1      22.615  -7.909 -43.676  0.00  0.00    +0.000 OA
ATOM     49  C12 UNL     1      23.779  -8.338 -42.963  0.00  0.00    +0.000 C 
BRANCH  47  50
ATOM     50  O8  UNL     1      21.622  -6.436 -45.131  0.00  0.00    +0.000 OA
ATOM     51  H18 UNL     1      21.445  -7.136 -45.810  0.00  0.00    +0.000 HD
ENDBRANCH  47  50
BRANCH  46  52
ATOM     52  O7  UNL     1      23.406  -8.127 -46.413  0.00  0.00    +0.000 OA
ATOM     53  H16 UNL     1      23.655  -7.887 -47.344  0.00  0.00    +0.000 HD
ENDBRANCH  46  52
BRANCH  45  54
ATOM     54  O6  UNL     1      26.272  -6.718 -45.293  0.00  0.00    +0.000 OA
ATOM     55  H14 UNL     1      26.021  -6.301 -46.161  0.00  0.00    +0.000 HD
ENDBRANCH  45  54
BRANCH  49  56
ATOM     56  C13 UNL     1      23.543  -8.170 -41.457  0.00  0.00    +0.000 C 
BRANCH  56  57
ATOM     57  O10 UNL     1      24.069  -9.268 -40.763  0.00  0.00    +0.000 OA
ATOM     58  H22 UNL     1      24.721  -9.705 -41.374  0.00  0.00    +0.000 HD
ENDBRANCH  56  57
ENDBRANCH  49  56
ENDBRANCH  43  44
ENDBRANCH  33  43
ENDBRANCH   1  30
TORSDOF 22
ENDMDL
MODEL 9
REMARK VINA RESULT:    -4.564      2.883     10.154
REMARK INTER + INTRA:         -11.205
REMARK INTER:                  -8.870
REMARK INTRA:                  -2.335
REMARK UNBOUND:                -2.506
REMARK  Name = resultss/4CJN/ligands/lig_198_t0.pdb
REMARK  23 active torsions:
REMARK  status: ('A' for Active; 'I' for Inactive)
REMARK    1  A    between atoms: C1_1  and  C2_2
REMARK    2  A    between atoms: C3_4  and  O2_5
REMARK    3  A    between atoms: O2_5  and  C4_6
REMARK    4  A    between atoms: C5_7  and  O3_8
REMARK    5  A    between atoms: C6_9  and  O4_10
REMARK    6  A    between atoms: C7_11  and  O5_12
REMARK    7  A    between atoms: O5_12  and  C8_13
REMARK    8  A    between atoms: C9_14  and  O6_15
REMARK    9  A    between atoms: C10_16  and  O7_17
REMARK   10  A    between atoms: C11_18  and  O8_19
REMARK   11  A    between atoms: C12_21  and  C13_22
REMARK   12  A    between atoms: C13_22  and  O10_23
REMARK   13  A    between atoms: C14_25  and  C15_26
REMARK   14  A    between atoms: C15_26  and  O12_27
REMARK   15  A    between atoms: C16_28  and  O13_29
REMARK   16  A    between atoms: C17_30  and  O14_31
REMARK   17  A    between atoms: C18_32  and  N1_33
REMARK   18  A    between atoms: N1_33  and  C19_34
REMARK   19  A    between atoms: C21_36  and  C22_37
REMARK   20  A    between atoms: C22_37  and  O15_38
REMARK   21  A    between atoms: C23_39  and  O16_40
REMARK   22  A    between atoms: C24_41  and  O17_42
REMARK   23  A    between atoms: C25_43  and  O18_44
REMARK                            x       y       z     vdW  Elec       q    Type
REMARK                         _______ _______ _______ _____ _____    ______ ____
ROOT
ATOM      1  O2  UNL     1      25.549  -8.175 -39.150  0.00  0.00    +0.000 OA
ENDROOT
BRANCH   1   5
ATOM      2  C1  UNL     1      29.175  -9.959 -38.207  0.00  0.00    +0.000 C 
ATOM      3  C2  UNL     1      27.962  -9.994 -37.267  0.00  0.00    +0.000 C 
ATOM      4  O1  UNL     1      26.796  -9.743 -38.037  0.00  0.00    +0.000 OA
ATOM      5  C3  UNL     1      26.487  -8.368 -38.104  0.00  0.00    +0.000 C 
ATOM      6  C16 UNL     1      25.868  -7.982 -36.757  0.00  0.00    +0.000 C 
ATOM      7  C17 UNL     1      26.859  -8.283 -35.598  0.00  0.00    +0.000 C 
ATOM      8  C18 UNL     1      28.147  -9.059 -36.000  0.00  0.00    +0.000 C 
BRANCH   8   9
ATOM      9  N1  UNL     1      28.581  -9.814 -34.799  0.00  0.00    +0.000 NA
ATOM     10  H32 UNL     1      28.348 -10.828 -34.904  0.00  0.00    +0.000 HD
BRANCH   9  11
ATOM     11  C19 UNL     1      29.994  -9.631 -34.415  0.00  0.00    +0.000 C 
ATOM     12  C20 UNL     1      30.680  -8.654 -35.346  0.00  0.00    +0.000 C 
ATOM     13  C21 UNL     1      31.899  -8.178 -35.026  0.00  0.00    +0.000 C 
ATOM     14  C23 UNL     1      32.539  -8.660 -33.734  0.00  0.00    +0.000 C 
ATOM     15  C24 UNL     1      31.511  -8.535 -32.581  0.00  0.00    +0.000 C 
ATOM     16  C25 UNL     1      30.104  -9.128 -32.936  0.00  0.00    +0.000 C 
BRANCH  16  17
ATOM     17  O18 UNL     1      29.098  -8.183 -32.636  0.00  0.00    +0.000 OA
ATOM     18  H43 UNL     1      29.438  -7.287 -32.896  0.00  0.00    +0.000 HD
ENDBRANCH  16  17
BRANCH  15  19
ATOM     19  O17 UNL     1      32.007  -9.119 -31.401  0.00  0.00    +0.000 OA
ATOM     20  H41 UNL     1      32.150 -10.083 -31.586  0.00  0.00    +0.000 HD
ENDBRANCH  15  19
BRANCH  14  21
ATOM     21  O16 UNL     1      33.689  -7.909 -33.434  0.00  0.00    +0.000 OA
ATOM     22  H39 UNL     1      34.408  -8.558 -33.217  0.00  0.00    +0.000 HD
ENDBRANCH  14  21
BRANCH  13  23
ATOM     23  C22 UNL     1      32.590  -7.183 -35.922  0.00  0.00    +0.000 C 
BRANCH  23  24
ATOM     24  O15 UNL     1      31.682  -6.219 -36.372  0.00  0.00    +0.000 OA
ATOM     25  H37 UNL     1      32.077  -5.329 -36.159  0.00  0.00    +0.000 HD
ENDBRANCH  23  24
ENDBRANCH  13  23
ENDBRANCH   9  11
ENDBRANCH   8   9
BRANCH   7  26
ATOM     26  O14 UNL     1      27.194  -7.093 -34.916  0.00  0.00    +0.000 OA
ATOM     27  H30 UNL     1      27.017  -7.245 -33.948  0.00  0.00    +0.000 HD
ENDBRANCH   7  26
BRANCH   6  28
ATOM     28  O13 UNL     1      24.696  -8.736 -36.546  0.00  0.00    +0.000 OA
ATOM     29  H28 UNL     1      23.928  -8.169 -36.819  0.00  0.00    +0.000 HD
ENDBRANCH   6  28
ENDBRANCH   1   5
BRANCH   1  30
ATOM     30  C4  UNL     1      26.167  -8.050 -40.428  0.00  0.00    +0.000 C 
ATOM     31  C5  UNL     1      26.263  -6.542 -40.796  0.00  0.00    +0.000 C 
ATOM     32  C6  UNL     1      25.068  -6.104 -41.661  0.00  0.00    +0.000 C 
ATOM     33  C7  UNL     1      24.956  -7.007 -42.926  0.00  0.00    +0.000 C 
ATOM     34  O11 UNL     1      25.565  -8.285 -42.764  0.00  0.00    +0.000 OA
ATOM     35  C14 UNL     1      25.324  -8.822 -41.476  0.00  0.00    +0.000 C 
BRANCH  32  36
ATOM     36  O4  UNL     1      23.888  -6.171 -40.895  0.00  0.00    +0.000 OA
ATOM     37  H10 UNL     1      23.134  -5.963 -41.502  0.00  0.00    +0.000 HD
ENDBRANCH  32  36
BRANCH  31  38
ATOM     38  O3  UNL     1      27.453  -6.290 -41.503  0.00  0.00    +0.000 OA
ATOM     39  H8  UNL     1      27.742  -5.372 -41.267  0.00  0.00    +0.000 HD
ENDBRANCH  31  38
BRANCH  35  40
ATOM     40  C15 UNL     1      25.677 -10.316 -41.478  0.00  0.00    +0.000 C 
BRANCH  40  41
ATOM     41  O12 UNL     1      26.849 -10.543 -40.746  0.00  0.00    +0.000 OA
ATOM     42  H26 UNL     1      27.606 -10.284 -41.332  0.00  0.00    +0.000 HD
ENDBRANCH  40  41
ENDBRANCH  35  40
BRANCH  33  43
ATOM     43  O5  UNL     1      23.589  -7.170 -43.287  0.00  0.00    +0.000 OA
BRANCH  43  44
ATOM     44  C8  UNL     1      23.287  -6.665 -44.580  0.00  0.00    +0.000 C 
ATOM     45  C9  UNL     1      24.107  -7.424 -45.651  0.00  0.00    +0.000 C 
ATOM     46  C10 UNL     1      23.533  -7.251 -47.083  0.00  0.00    +0.000 C 
ATOM     47  C11 UNL     1      22.328  -6.292 -47.084  0.00  0.00    +0.000 C 
ATOM     48  O9  UNL     1      21.333  -6.767 -46.198  0.00  0.00    +0.000 OA
ATOM     49  C12 UNL     1      21.764  -6.861 -44.836  0.00  0.00    +0.000 C 
BRANCH  47  50
ATOM     50  O8  UNL     1      21.792  -6.218 -48.380  0.00  0.00    +0.000 OA
ATOM     51  H18 UNL     1      21.119  -6.943 -48.450  0.00  0.00    +0.000 HD
ENDBRANCH  47  50
BRANCH  46  52
ATOM     52  O7  UNL     1      23.132  -8.509 -47.574  0.00  0.00    +0.000 OA
ATOM     53  H16 UNL     1      22.756  -9.020 -46.810  0.00  0.00    +0.000 HD
ENDBRANCH  46  52
BRANCH  45  54
ATOM     54  O6  UNL     1      25.457  -7.023 -45.613  0.00  0.00    +0.000 OA
ATOM     55  H14 UNL     1      25.530  -6.291 -44.944  0.00  0.00    +0.000 HD
ENDBRANCH  45  54
BRANCH  49  56
ATOM     56  C13 UNL     1      20.951  -5.884 -43.978  0.00  0.00    +0.000 C 
BRANCH  56  57
ATOM     57  O10 UNL     1      21.193  -6.123 -42.618  0.00  0.00    +0.000 OA
ATOM     58  H22 UNL     1      21.765  -6.935 -42.570  0.00  0.00    +0.000 HD
ENDBRANCH  56  57
ENDBRANCH  49  56
ENDBRANCH  43  44
ENDBRANCH  33  43
ENDBRANCH   1  30
TORSDOF 22
ENDMDL
