MODEL 1
REMARK VINA RESULT:    -4.112      0.000      0.000
REMARK INTER + INTRA:          -5.157
REMARK INTER:                  -5.074
REMARK INTRA:                  -0.083
REMARK UNBOUND:                -0.083
REMARK  Name = resultss/4CJN/ligands/lig_16_t0.pdb
REMARK  6 active torsions:
REMARK  status: ('A' for Active; 'I' for Inactive)
REMARK    1  A    between atoms: O1_1  and  C1_2
REMARK    2  A    between atoms: C1_2  and  C2_3
REMARK    3  A    between atoms: C3_5  and  C4_6
REMARK    4  A    between atoms: C4_6  and  O2_7
REMARK    5  A    between atoms: C5_8  and  O3_9
REMARK    6  A    between atoms: C6_10  and  O4_11
REMARK                            x       y       z     vdW  Elec       q    Type
REMARK                         _______ _______ _______ _____ _____    ______ ____
ROOT
ATOM      1  C2  UNL     1      25.571  -8.349 -34.705  0.00  0.00    +0.000 C 
ATOM      2  N1  UNL     1      24.311  -8.361 -35.463  0.00  0.00    +0.000 NA
ATOM      3  C3  UNL     1      23.228  -8.156 -34.494  0.00  0.00    +0.000 C 
ATOM      4  C5  UNL     1      23.837  -7.437 -33.297  0.00  0.00    +0.000 C 
ATOM      5  C6  UNL     1      25.246  -7.995 -33.241  0.00  0.00    +0.000 C 
ATOM      6  H5  UNL     1      24.335  -7.561 -36.140  0.00  0.00    +0.000 HD
ENDROOT
BRANCH   4   7
ATOM      7  O3  UNL     1      23.124  -7.730 -32.123  0.00  0.00    +0.000 OA
ATOM      8  H11 UNL     1      22.392  -8.348 -32.387  0.00  0.00    +0.000 HD
ENDBRANCH   4   7
BRANCH   5   9
ATOM      9  O4  UNL     1      26.132  -7.030 -32.739  0.00  0.00    +0.000 OA
ATOM     10  H13 UNL     1      26.015  -6.221 -33.301  0.00  0.00    +0.000 HD
ENDBRANCH   5   9
BRANCH   1  11
ATOM     11  C1  UNL     1      26.257  -9.717 -34.836  0.00  0.00    +0.000 C 
BRANCH  11  12
ATOM     12  O1  UNL     1      25.461 -10.729 -34.280  0.00  0.00    +0.000 OA
ATOM     13  H1  UNL     1      24.647 -10.791 -34.845  0.00  0.00    +0.000 HD
ENDBRANCH  11  12
ENDBRANCH   1  11
BRANCH   3  14
ATOM     14  C4  UNL     1      22.043  -7.389 -35.111  0.00  0.00    +0.000 C 
BRANCH  14  15
ATOM     15  O2  UNL     1      22.167  -7.323 -36.507  0.00  0.00    +0.000 OA
ATOM     16  H9  UNL     1      22.110  -8.255 -36.841  0.00  0.00    +0.000 HD
ENDBRANCH  14  15
ENDBRANCH   3  14
TORSDOF 6
ENDMDL
MODEL 2
REMARK VINA RESULT:    -4.005      0.392      3.603
REMARK INTER + INTRA:          -5.024
REMARK INTER:                  -4.919
REMARK INTRA:                  -0.106
REMARK UNBOUND:                -0.083
REMARK  Name = resultss/4CJN/ligands/lig_16_t0.pdb
REMARK  6 active torsions:
REMARK  status: ('A' for Active; 'I' for Inactive)
REMARK    1  A    between atoms: O1_1  and  C1_2
REMARK    2  A    between atoms: C1_2  and  C2_3
REMARK    3  A    between atoms: C3_5  and  C4_6
REMARK    4  A    between atoms: C4_6  and  O2_7
REMARK    5  A    between atoms: C5_8  and  O3_9
REMARK    6  A    between atoms: C6_10  and  O4_11
REMARK                            x       y       z     vdW  Elec       q    Type
REMARK                         _______ _______ _______ _____ _____    ______ ____
ROOT
ATOM      1  C2  UNL     1      22.986  -7.835 -34.506  0.00  0.00    +0.000 C 
ATOM      2  N1  UNL     1      23.941  -8.496 -35.407  0.00  0.00    +0.000 NA
ATOM      3  C3  UNL     1      25.269  -8.354 -34.799  0.00  0.00    +0.000 C 
ATOM      4  C5  UNL     1      25.053  -8.158 -33.305  0.00  0.00    +0.000 C 
ATOM      5  C6  UNL     1      23.748  -7.387 -33.244  0.00  0.00    +0.000 C 
ATOM      6  H5  UNL     1      23.684  -9.511 -35.459  0.00  0.00    +0.000 HD
ENDROOT
BRANCH   4   7
ATOM      7  O3  UNL     1      26.107  -7.423 -32.739  0.00  0.00    +0.000 OA
ATOM      8  H11 UNL     1      25.930  -6.469 -32.951  0.00  0.00    +0.000 HD
ENDBRANCH   4   7
BRANCH   5   9
ATOM      9  O4  UNL     1      23.043  -7.715 -32.076  0.00  0.00    +0.000 OA
ATOM     10  H13 UNL     1      22.643  -8.610 -32.231  0.00  0.00    +0.000 HD
ENDBRANCH   5   9
BRANCH   1  11
ATOM     11  C1  UNL     1      22.328  -6.655 -35.238  0.00  0.00    +0.000 C 
BRANCH  11  12
ATOM     12  O1  UNL     1      21.874  -7.045 -36.507  0.00  0.00    +0.000 OA
ATOM     13  H1  UNL     1      22.339  -7.895 -36.725  0.00  0.00    +0.000 HD
ENDBRANCH  11  12
ENDBRANCH   1  11
BRANCH   3  14
ATOM     14  C4  UNL     1      26.178  -9.556 -35.119  0.00  0.00    +0.000 C 
BRANCH  14  15
ATOM     15  O2  UNL     1      25.769 -10.692 -34.405  0.00  0.00    +0.000 OA
ATOM     16  H9  UNL     1      25.373 -11.316 -35.068  0.00  0.00    +0.000 HD
ENDBRANCH  14  15
ENDBRANCH   3  14
TORSDOF 6
ENDMDL
MODEL 3
REMARK VINA RESULT:    -3.972      2.866      4.218
REMARK INTER + INTRA:          -4.983
REMARK INTER:                  -4.570
REMARK INTRA:                  -0.413
REMARK UNBOUND:                -0.083
REMARK  Name = resultss/4CJN/ligands/lig_16_t0.pdb
REMARK  6 active torsions:
REMARK  status: ('A' for Active; 'I' for Inactive)
REMARK    1  A    between atoms: O1_1  and  C1_2
REMARK    2  A    between atoms: C1_2  and  C2_3
REMARK    3  A    between atoms: C3_5  and  C4_6
REMARK    4  A    between atoms: C4_6  and  O2_7
REMARK    5  A    between atoms: C5_8  and  O3_9
REMARK    6  A    between atoms: C6_10  and  O4_11
REMARK                            x       y       z     vdW  Elec       q    Type
REMARK                         _______ _______ _______ _____ _____    ______ ____
ROOT
ATOM      1  C2  UNL     1      27.634  -7.805 -33.314  0.00  0.00    +0.000 C 
ATOM      2  N1  UNL     1      28.462  -8.423 -34.359  0.00  0.00    +0.000 NA
ATOM      3  C3  UNL     1      27.755  -9.629 -34.807  0.00  0.00    +0.000 C 
ATOM      4  C5  UNL     1      26.280  -9.419 -34.489  0.00  0.00    +0.000 C 
ATOM      5  C6  UNL     1      26.317  -8.597 -33.215  0.00  0.00    +0.000 C 
ATOM      6  H5  UNL     1      28.537  -7.744 -35.154  0.00  0.00    +0.000 HD
ENDROOT
BRANCH   4   7
ATOM      7  O3  UNL     1      25.634 -10.649 -34.286  0.00  0.00    +0.000 OA
ATOM      8  H11 UNL     1      25.403 -10.996 -35.188  0.00  0.00    +0.000 HD
ENDBRANCH   4   7
BRANCH   5   9
ATOM      9  O4  UNL     1      25.207  -7.741 -33.157  0.00  0.00    +0.000 OA
ATOM     10  H13 UNL     1      24.640  -8.065 -32.410  0.00  0.00    +0.000 HD
ENDBRANCH   5   9
BRANCH   1  11
ATOM     11  C1  UNL     1      28.410  -7.799 -31.988  0.00  0.00    +0.000 C 
BRANCH  11  12
ATOM     12  O1  UNL     1      27.541  -7.626 -30.901  0.00  0.00    +0.000 OA
ATOM     13  H1  UNL     1      27.948  -8.106 -30.133  0.00  0.00    +0.000 HD
ENDBRANCH  11  12
ENDBRANCH   1  11
BRANCH   3  14
ATOM     14  C4  UNL     1      28.008  -9.923 -36.298  0.00  0.00    +0.000 C 
BRANCH  14  15
ATOM     15  O2  UNL     1      26.797 -10.016 -36.999  0.00  0.00    +0.000 OA
ATOM     16  H9  UNL     1      26.252  -9.232 -36.730  0.00  0.00    +0.000 HD
ENDBRANCH  14  15
ENDBRANCH   3  14
TORSDOF 6
ENDMDL
MODEL 4
REMARK VINA RESULT:    -3.867      1.842      4.116
REMARK INTER + INTRA:          -4.854
REMARK INTER:                  -4.433
REMARK INTRA:                  -0.421
REMARK UNBOUND:                -0.083
REMARK  Name = resultss/4CJN/ligands/lig_16_t0.pdb
REMARK  6 active torsions:
REMARK  status: ('A' for Active; 'I' for Inactive)
REMARK    1  A    between atoms: O1_1  and  C1_2
REMARK    2  A    between atoms: C1_2  and  C2_3
REMARK    3  A    between atoms: C3_5  and  C4_6
REMARK    4  A    between atoms: C4_6  and  O2_7
REMARK    5  A    between atoms: C5_8  and  O3_9
REMARK    6  A    between atoms: C6_10  and  O4_11
REMARK                            x       y       z     vdW  Elec       q    Type
REMARK                         _______ _______ _______ _____ _____    ______ ____
ROOT
ATOM      1  C2  UNL     1      25.456  -7.104 -34.413  0.00  0.00    +0.000 C 
ATOM      2  N1  UNL     1      26.856  -7.390 -34.757  0.00  0.00    +0.000 NA
ATOM      3  C3  UNL     1      27.020  -8.847 -34.704  0.00  0.00    +0.000 C 
ATOM      4  C5  UNL     1      25.640  -9.454 -34.923  0.00  0.00    +0.000 C 
ATOM      5  C6  UNL     1      24.713  -8.446 -34.271  0.00  0.00    +0.000 C 
ATOM      6  H5  UNL     1      27.023  -7.052 -35.735  0.00  0.00    +0.000 HD
ENDROOT
BRANCH   4   7
ATOM      7  O3  UNL     1      25.545 -10.712 -34.305  0.00  0.00    +0.000 OA
ATOM      8  H11 UNL     1      26.120 -10.671 -33.496  0.00  0.00    +0.000 HD
ENDBRANCH   4   7
BRANCH   5   9
ATOM      9  O4  UNL     1      23.478  -8.421 -34.936  0.00  0.00    +0.000 OA
ATOM     10  H13 UNL     1      23.652  -8.721 -35.866  0.00  0.00    +0.000 HD
ENDBRANCH   5   9
BRANCH   1  11
ATOM     11  C1  UNL     1      25.408  -6.274 -33.121  0.00  0.00    +0.000 C 
BRANCH  11  12
ATOM     12  O1  UNL     1      24.191  -6.463 -32.450  0.00  0.00    +0.000 OA
ATOM     13  H1  UNL     1      24.270  -5.989 -31.582  0.00  0.00    +0.000 HD
ENDBRANCH  11  12
ENDBRANCH   1  11
BRANCH   3  14
ATOM     14  C4  UNL     1      28.060  -9.345 -35.725  0.00  0.00    +0.000 C 
BRANCH  14  15
ATOM     15  O2  UNL     1      27.524 -10.366 -36.523  0.00  0.00    +0.000 OA
ATOM     16  H9  UNL     1      27.654 -10.087 -37.467  0.00  0.00    +0.000 HD
ENDBRANCH  14  15
ENDBRANCH   3  14
TORSDOF 6
ENDMDL
MODEL 5
REMARK VINA RESULT:    -3.826      2.917      4.343
REMARK INTER + INTRA:          -4.804
REMARK INTER:                  -4.393
REMARK INTRA:                  -0.411
REMARK UNBOUND:                -0.083
REMARK  Name = resultss/4CJN/ligands/lig_16_t0.pdb
REMARK  6 active torsions:
REMARK  status: ('A' for Active; 'I' for Inactive)
REMARK    1  A    between atoms: O1_1  and  C1_2
REMARK    2  A    between atoms: C1_2  and  C2_3
REMARK    3  A    between atoms: C3_5  and  C4_6
REMARK    4  A    between atoms: C4_6  and  O2_7
REMARK    5  A    between atoms: C5_8  and  O3_9
REMARK    6  A    between atoms: C6_10  and  O4_11
REMARK                            x       y       z     vdW  Elec       q    Type
REMARK                         _______ _______ _______ _____ _____    ______ ____
ROOT
ATOM      1  C2  UNL     1      27.525  -9.950 -34.899  0.00  0.00    +0.000 C 
ATOM      2  N1  UNL     1      28.532  -9.183 -34.153  0.00  0.00    +0.000 NA
ATOM      3  C3  UNL     1      27.809  -8.156 -33.392  0.00  0.00    +0.000 C 
ATOM      4  C5  UNL     1      26.387  -8.667 -33.203  0.00  0.00    +0.000 C 
ATOM      5  C6  UNL     1      26.130  -9.451 -34.476  0.00  0.00    +0.000 C 
ATOM      6  H5  UNL     1      29.011  -9.839 -33.491  0.00  0.00    +0.000 HD
ENDROOT
BRANCH   4   7
ATOM      7  O3  UNL     1      25.486  -7.598 -33.070  0.00  0.00    +0.000 OA
ATOM      8  H11 UNL     1      26.001  -6.772 -33.268  0.00  0.00    +0.000 HD
ENDBRANCH   4   7
BRANCH   5   9
ATOM      9  O4  UNL     1      25.258 -10.520 -34.221  0.00  0.00    +0.000 OA
ATOM     10  H13 UNL     1      25.213 -10.618 -33.235  0.00  0.00    +0.000 HD
ENDBRANCH   5   9
BRANCH   1  11
ATOM     11  C1  UNL     1      27.770  -9.781 -36.406  0.00  0.00    +0.000 C 
BRANCH  11  12
ATOM     12  O1  UNL     1      26.557  -9.719 -37.106  0.00  0.00    +0.000 OA
ATOM     13  H1  UNL     1      25.858  -9.482 -36.442  0.00  0.00    +0.000 HD
ENDBRANCH  11  12
ENDBRANCH   1  11
BRANCH   3  14
ATOM     14  C4  UNL     1      28.509  -7.830 -32.059  0.00  0.00    +0.000 C 
BRANCH  14  15
ATOM     15  O2  UNL     1      27.602  -7.279 -31.143  0.00  0.00    +0.000 OA
ATOM     16  H9  UNL     1      26.750  -7.778 -31.252  0.00  0.00    +0.000 HD
ENDBRANCH  14  15
ENDBRANCH   3  14
TORSDOF 6
ENDMDL
MODEL 6
REMARK VINA RESULT:    -3.807      7.261      8.257
REMARK INTER + INTRA:          -4.780
REMARK INTER:                  -4.381
REMARK INTRA:                  -0.399
REMARK UNBOUND:                -0.083
REMARK  Name = resultss/4CJN/ligands/lig_16_t0.pdb
REMARK  6 active torsions:
REMARK  status: ('A' for Active; 'I' for Inactive)
REMARK    1  A    between atoms: O1_1  and  C1_2
REMARK    2  A    between atoms: C1_2  and  C2_3
REMARK    3  A    between atoms: C3_5  and  C4_6
REMARK    4  A    between atoms: C4_6  and  O2_7
REMARK    5  A    between atoms: C5_8  and  O3_9
REMARK    6  A    between atoms: C6_10  and  O4_11
REMARK                            x       y       z     vdW  Elec       q    Type
REMARK                         _______ _______ _______ _____ _____    ______ ____
ROOT
ATOM      1  C2  UNL     1      26.302  -8.754 -41.085  0.00  0.00    +0.000 C 
ATOM      2  N1  UNL     1      26.435  -8.087 -42.387  0.00  0.00    +0.000 NA
ATOM      3  C3  UNL     1      25.347  -8.586 -43.236  0.00  0.00    +0.000 C 
ATOM      4  C5  UNL     1      24.243  -9.064 -42.303  0.00  0.00    +0.000 C 
ATOM      5  C6  UNL     1      25.009  -9.592 -41.106  0.00  0.00    +0.000 C 
ATOM      6  H5  UNL     1      26.318  -7.056 -42.234  0.00  0.00    +0.000 HD
ENDROOT
BRANCH   4   7
ATOM      7  O3  UNL     1      23.480 -10.075 -42.909  0.00  0.00    +0.000 OA
ATOM      8  H11 UNL     1      24.128 -10.718 -43.301  0.00  0.00    +0.000 HD
ENDBRANCH   4   7
BRANCH   5   9
ATOM      9  O4  UNL     1      24.262  -9.412 -39.932  0.00  0.00    +0.000 OA
ATOM     10  H13 UNL     1      23.388  -9.856 -40.083  0.00  0.00    +0.000 HD
ENDBRANCH   5   9
BRANCH   1  11
ATOM     11  C1  UNL     1      27.548  -9.613 -40.823  0.00  0.00    +0.000 C 
BRANCH  11  12
ATOM     12  O1  UNL     1      27.193 -10.855 -40.278  0.00  0.00    +0.000 OA
ATOM     13  H1  UNL     1      27.997 -11.198 -39.806  0.00  0.00    +0.000 HD
ENDBRANCH  11  12
ENDBRANCH   1  11
BRANCH   3  14
ATOM     14  C4  UNL     1      24.863  -7.518 -44.236  0.00  0.00    +0.000 C 
BRANCH  14  15
ATOM     15  O2  UNL     1      23.829  -8.021 -45.039  0.00  0.00    +0.000 OA
ATOM     16  H9  UNL     1      23.224  -8.529 -44.438  0.00  0.00    +0.000 HD
ENDBRANCH  14  15
ENDBRANCH   3  14
TORSDOF 6
ENDMDL
MODEL 7
REMARK VINA RESULT:    -3.745      1.814      2.979
REMARK INTER + INTRA:          -4.704
REMARK INTER:                  -4.535
REMARK INTRA:                  -0.169
REMARK UNBOUND:                -0.083
REMARK  Name = resultss/4CJN/ligands/lig_16_t0.pdb
REMARK  6 active torsions:
REMARK  status: ('A' for Active; 'I' for Inactive)
REMARK    1  A    between atoms: O1_1  and  C1_2
REMARK    2  A    between atoms: C1_2  and  C2_3
REMARK    3  A    between atoms: C3_5  and  C4_6
REMARK    4  A    between atoms: C4_6  and  O2_7
REMARK    5  A    between atoms: C5_8  and  O3_9
REMARK    6  A    between atoms: C6_10  and  O4_11
REMARK                            x       y       z     vdW  Elec       q    Type
REMARK                         _______ _______ _______ _____ _____    ______ ____
ROOT
ATOM      1  C2  UNL     1      26.433  -8.525 -33.319  0.00  0.00    +0.000 C 
ATOM      2  N1  UNL     1      25.722  -7.320 -32.871  0.00  0.00    +0.000 NA
ATOM      3  C3  UNL     1      24.591  -7.127 -33.787  0.00  0.00    +0.000 C 
ATOM      4  C5  UNL     1      24.270  -8.490 -34.384  0.00  0.00    +0.000 C 
ATOM      5  C6  UNL     1      25.629  -9.157 -34.470  0.00  0.00    +0.000 C 
ATOM      6  H5  UNL     1      25.364  -7.498 -31.902  0.00  0.00    +0.000 HD
ENDROOT
BRANCH   4   7
ATOM      7  O3  UNL     1      23.685  -8.354 -35.654  0.00  0.00    +0.000 OA
ATOM      8  H11 UNL     1      24.332  -8.737 -36.303  0.00  0.00    +0.000 HD
ENDBRANCH   4   7
BRANCH   5   9
ATOM      9  O4  UNL     1      25.501 -10.545 -34.306  0.00  0.00    +0.000 OA
ATOM     10  H13 UNL     1      25.613 -10.946 -35.206  0.00  0.00    +0.000 HD
ENDBRANCH   5   9
BRANCH   1  11
ATOM     11  C1  UNL     1      27.860  -8.146 -33.744  0.00  0.00    +0.000 C 
BRANCH  11  12
ATOM     12  O1  UNL     1      27.956  -8.050 -35.140  0.00  0.00    +0.000 OA
ATOM     13  H1  UNL     1      27.255  -8.645 -35.514  0.00  0.00    +0.000 HD
ENDBRANCH  11  12
ENDBRANCH   1  11
BRANCH   3  14
ATOM     14  C4  UNL     1      23.382  -6.485 -33.079  0.00  0.00    +0.000 C 
BRANCH  14  15
ATOM     15  O2  UNL     1      22.943  -7.290 -32.018  0.00  0.00    +0.000 OA
ATOM     16  H9  UNL     1      23.736  -7.468 -31.448  0.00  0.00    +0.000 HD
ENDBRANCH  14  15
ENDBRANCH   3  14
TORSDOF 6
ENDMDL
MODEL 8
REMARK VINA RESULT:    -3.637      2.042      3.702
REMARK INTER + INTRA:          -4.570
REMARK INTER:                  -4.322
REMARK INTRA:                  -0.249
REMARK UNBOUND:                -0.083
REMARK  Name = resultss/4CJN/ligands/lig_16_t0.pdb
REMARK  6 active torsions:
REMARK  status: ('A' for Active; 'I' for Inactive)
REMARK    1  A    between atoms: O1_1  and  C1_2
REMARK    2  A    between atoms: C1_2  and  C2_3
REMARK    3  A    between atoms: C3_5  and  C4_6
REMARK    4  A    between atoms: C4_6  and  O2_7
REMARK    5  A    between atoms: C5_8  and  O3_9
REMARK    6  A    between atoms: C6_10  and  O4_11
REMARK                            x       y       z     vdW  Elec       q    Type
REMARK                         _______ _______ _______ _____ _____    ______ ____
ROOT
ATOM      1  C2  UNL     1      26.289  -8.288 -36.936  0.00  0.00    +0.000 C 
ATOM      2  N1  UNL     1      25.358  -7.533 -36.086  0.00  0.00    +0.000 NA
ATOM      3  C3  UNL     1      24.957  -8.427 -34.993  0.00  0.00    +0.000 C 
ATOM      4  C5  UNL     1      26.064  -9.461 -34.841  0.00  0.00    +0.000 C 
ATOM      5  C6  UNL     1      26.561  -9.646 -36.261  0.00  0.00    +0.000 C 
ATOM      6  H5  UNL     1      25.875  -6.709 -35.696  0.00  0.00    +0.000 HD
ENDROOT
BRANCH   4   7
ATOM      7  O3  UNL     1      25.558 -10.661 -34.315  0.00  0.00    +0.000 OA
ATOM      8  H11 UNL     1      25.672 -10.606 -33.330  0.00  0.00    +0.000 HD
ENDBRANCH   4   7
BRANCH   5   9
ATOM      9  O4  UNL     1      27.929  -9.955 -36.262  0.00  0.00    +0.000 OA
ATOM     10  H13 UNL     1      28.320  -9.506 -35.468  0.00  0.00    +0.000 HD
ENDBRANCH   5   9
BRANCH   1  11
ATOM     11  C1  UNL     1      25.684  -8.446 -38.339  0.00  0.00    +0.000 C 
BRANCH  11  12
ATOM     12  O1  UNL     1      24.308  -8.704 -38.264  0.00  0.00    +0.000 OA
ATOM     13  H1  UNL     1      24.132  -9.039 -37.346  0.00  0.00    +0.000 HD
ENDBRANCH  11  12
ENDBRANCH   1  11
BRANCH   3  14
ATOM     14  C4  UNL     1      24.680  -7.652 -33.691  0.00  0.00    +0.000 C 
BRANCH  14  15
ATOM     15  O2  UNL     1      25.547  -8.069 -32.670  0.00  0.00    +0.000 OA
ATOM     16  H9  UNL     1      25.904  -7.246 -32.246  0.00  0.00    +0.000 HD
ENDBRANCH  14  15
ENDBRANCH   3  14
TORSDOF 6
ENDMDL
MODEL 9
REMARK VINA RESULT:    -3.577      9.641     11.126
REMARK INTER + INTRA:          -4.497
REMARK INTER:                  -4.252
REMARK INTRA:                  -0.245
REMARK UNBOUND:                -0.083
REMARK  Name = resultss/4CJN/ligands/lig_16_t0.pdb
REMARK  6 active torsions:
REMARK  status: ('A' for Active; 'I' for Inactive)
REMARK    1  A    between atoms: O1_1  and  C1_2
REMARK    2  A    between atoms: C1_2  and  C2_3
REMARK    3  A    between atoms: C3_5  and  C4_6
REMARK    4  A    between atoms: C4_6  and  O2_7
REMARK    5  A    between atoms: C5_8  and  O3_9
REMARK    6  A    between atoms: C6_10  and  O4_11
REMARK                            x       y       z     vdW  Elec       q    Type
REMARK                         _______ _______ _______ _____ _____    ______ ____
ROOT
ATOM      1  C2  UNL     1      22.921  -7.477 -43.693  0.00  0.00    +0.000 C 
ATOM      2  N1  UNL     1      22.011  -7.386 -44.844  0.00  0.00    +0.000 NA
ATOM      3  C3  UNL     1      22.824  -6.991 -46.000  0.00  0.00    +0.000 C 
ATOM      4  C5  UNL     1      24.254  -7.422 -45.703  0.00  0.00    +0.000 C 
ATOM      5  C6  UNL     1      24.359  -7.252 -44.199  0.00  0.00    +0.000 C 
ATOM      6  H5  UNL     1      21.604  -8.337 -45.008  0.00  0.00    +0.000 HD
ENDROOT
BRANCH   4   7
ATOM      7  O3  UNL     1      25.173  -6.601 -46.376  0.00  0.00    +0.000 OA
ATOM      8  H11 UNL     1      25.460  -5.909 -45.724  0.00  0.00    +0.000 HD
ENDBRANCH   4   7
BRANCH   5   9
ATOM      9  O4  UNL     1      25.244  -8.200 -43.663  0.00  0.00    +0.000 OA
ATOM     10  H13 UNL     1      25.061  -9.054 -44.133  0.00  0.00    +0.000 HD
ENDBRANCH   5   9
BRANCH   1  11
ATOM     11  C1  UNL     1      22.509  -6.442 -42.635  0.00  0.00    +0.000 C 
BRANCH  11  12
ATOM     12  O1  UNL     1      22.268  -7.060 -41.399  0.00  0.00    +0.000 OA
ATOM     13  H1  UNL     1      21.524  -6.560 -40.973  0.00  0.00    +0.000 HD
ENDBRANCH  11  12
ENDBRANCH   1  11
BRANCH   3  14
ATOM     14  C4  UNL     1      22.282  -7.587 -47.313  0.00  0.00    +0.000 C 
BRANCH  14  15
ATOM     15  O2  UNL     1      23.151  -8.569 -47.810  0.00  0.00    +0.000 OA
ATOM     16  H9  UNL     1      22.581  -9.297 -48.171  0.00  0.00    +0.000 HD
ENDBRANCH  14  15
ENDBRANCH   3  14
TORSDOF 6
ENDMDL
