MODEL 1
REMARK VINA RESULT:    -6.287      0.000      0.000
REMARK INTER + INTRA:          -8.601
REMARK INTER:                  -8.124
REMARK INTRA:                  -0.477
REMARK UNBOUND:                -0.477
REMARK  Name = resultss/4CJN/ligands/lig_166_t2.pdb
REMARK  6 active torsions:
REMARK  status: ('A' for Active; 'I' for Inactive)
REMARK    1  A    between atoms: C1_1  and  O1_2
REMARK    2  A    between atoms: O1_2  and  C2_3
REMARK    3  A    between atoms: C5_6  and  C6_7
REMARK    4  A    between atoms: N1_8  and  N2_9
REMARK    5  A    between atoms: C7_10  and  C8_12
REMARK    6  A    between atoms: C11_15  and  C12_16
REMARK                            x       y       z     vdW  Elec       q    Type
REMARK                         _______ _______ _______ _____ _____    ______ ____
ROOT
ATOM      1  N2  UNL     1      23.431  -8.842 -41.844  0.00  0.00    +0.000 N 
ATOM      2  C7  UNL     1      24.719  -9.475 -41.946  0.00  0.00    +0.000 C 
ATOM      3  O2  UNL     1      25.045 -10.054 -43.018  0.00  0.00    +0.000 OA
ATOM      4  H8  UNL     1      22.968  -8.808 -40.909  0.00  0.00    +0.000 HD
ENDROOT
BRANCH   2   5
ATOM      5  C8  UNL     1      25.648  -9.498 -40.790  0.00  0.00    +0.000 A 
ATOM      6  C9  UNL     1      25.363  -8.746 -39.637  0.00  0.00    +0.000 A 
ATOM      7  C10 UNL     1      26.230  -8.766 -38.541  0.00  0.00    +0.000 A 
ATOM      8  C11 UNL     1      27.400  -9.543 -38.570  0.00  0.00    +0.000 A 
ATOM      9  C19 UNL     1      27.681 -10.302 -39.719  0.00  0.00    +0.000 A 
ATOM     10  C20 UNL     1      26.815 -10.282 -40.815  0.00  0.00    +0.000 A 
BRANCH   8  11
ATOM     11  C12 UNL     1      28.313  -9.556 -37.403  0.00  0.00    +0.000 A 
ATOM     12  N3  UNL     1      27.875  -9.620 -36.119  0.00  0.00    +0.000 NA
ATOM     13  C13 UNL     1      28.911  -9.618 -35.241  0.00  0.00    +0.000 A 
ATOM     14  C14 UNL     1      28.769  -9.676 -33.854  0.00  0.00    +0.000 A 
ATOM     15  C15 UNL     1      29.926  -9.667 -33.055  0.00  0.00    +0.000 A 
ATOM     16  C16 UNL     1      31.203  -9.600 -33.649  0.00  0.00    +0.000 A 
ATOM     17  C17 UNL     1      31.333  -9.543 -35.046  0.00  0.00    +0.000 A 
ATOM     18  C18 UNL     1      30.170  -9.554 -35.813  0.00  0.00    +0.000 A 
ATOM     19  S1  UNL     1      30.011  -9.495 -37.480  0.00  0.00    +0.000 S 
ENDBRANCH   8  11
ENDBRANCH   2   5
BRANCH   1  21
ATOM     20  C6  UNL     1      22.920  -7.425 -43.694  0.00  0.00    +0.000 C 
ATOM     21  N1  UNL     1      22.664  -8.467 -42.963  0.00  0.00    +0.000 NA
BRANCH  20  25
ATOM     22  C2  UNL     1      20.573  -6.474 -47.270  0.00  0.00    +0.000 C 
ATOM     23  C3  UNL     1      19.947  -6.267 -45.901  0.00  0.00    +0.000 C 
ATOM     24  C4  UNL     1      20.834  -6.622 -44.732  0.00  0.00    +0.000 C 
ATOM     25  C5  UNL     1      22.087  -7.088 -44.873  0.00  0.00    +0.000 C 
ATOM     26  C21 UNL     1      22.636  -7.268 -46.232  0.00  0.00    +0.000 C 
ATOM     27  O3  UNL     1      23.807  -7.705 -46.400  0.00  0.00    +0.000 OA
ATOM     28  C22 UNL     1      21.819  -6.938 -47.403  0.00  0.00    +0.000 C 
BRANCH  22  30
ATOM     29  C1  UNL     1      18.639  -6.827 -48.804  0.00  0.00    +0.000 C 
ATOM     30  O1  UNL     1      19.855  -6.182 -48.438  0.00  0.00    +0.000 OA
ENDBRANCH  22  30
ENDBRANCH  20  25
ENDBRANCH   1  21
TORSDOF 5
ENDMDL
MODEL 2
REMARK VINA RESULT:    -6.164      3.704     12.224
REMARK INTER + INTRA:          -8.442
REMARK INTER:                  -7.966
REMARK INTRA:                  -0.477
REMARK UNBOUND:                -0.477
REMARK  Name = resultss/4CJN/ligands/lig_166_t2.pdb
REMARK  6 active torsions:
REMARK  status: ('A' for Active; 'I' for Inactive)
REMARK    1  A    between atoms: C1_1  and  O1_2
REMARK    2  A    between atoms: O1_2  and  C2_3
REMARK    3  A    between atoms: C5_6  and  C6_7
REMARK    4  A    between atoms: N1_8  and  N2_9
REMARK    5  A    between atoms: C7_10  and  C8_12
REMARK    6  A    between atoms: C11_15  and  C12_16
REMARK                            x       y       z     vdW  Elec       q    Type
REMARK                         _______ _______ _______ _____ _____    ______ ____
ROOT
ATOM      1  N2  UNL     1      26.820  -8.842 -39.841  0.00  0.00    +0.000 N 
ATOM      2  C7  UNL     1      25.396  -8.804 -40.035  0.00  0.00    +0.000 C 
ATOM      3  O2  UNL     1      24.629  -9.145 -39.093  0.00  0.00    +0.000 OA
ATOM      4  H8  UNL     1      27.428  -9.043 -40.665  0.00  0.00    +0.000 HD
ENDROOT
BRANCH   2   5
ATOM      5  C8  UNL     1      24.817  -8.415 -41.344  0.00  0.00    +0.000 A 
ATOM      6  C9  UNL     1      23.513  -7.891 -41.414  0.00  0.00    +0.000 A 
ATOM      7  C10 UNL     1      22.961  -7.517 -42.642  0.00  0.00    +0.000 A 
ATOM      8  C11 UNL     1      23.701  -7.652 -43.829  0.00  0.00    +0.000 A 
ATOM      9  C19 UNL     1      25.008  -8.165 -43.758  0.00  0.00    +0.000 A 
ATOM     10  C20 UNL     1      25.560  -8.540 -42.530  0.00  0.00    +0.000 A 
BRANCH   8  11
ATOM     11  C12 UNL     1      23.106  -7.252 -45.126  0.00  0.00    +0.000 A 
ATOM     12  N3  UNL     1      21.770  -7.281 -45.370  0.00  0.00    +0.000 NA
ATOM     13  C13 UNL     1      21.488  -6.867 -46.632  0.00  0.00    +0.000 A 
ATOM     14  C14 UNL     1      20.202  -6.791 -47.167  0.00  0.00    +0.000 A 
ATOM     15  C15 UNL     1      20.046  -6.344 -48.491  0.00  0.00    +0.000 A 
ATOM     16  C16 UNL     1      21.172  -5.981 -49.259  0.00  0.00    +0.000 A 
ATOM     17  C17 UNL     1      22.460  -6.061 -48.709  0.00  0.00    +0.000 A 
ATOM     18  C18 UNL     1      22.586  -6.507 -47.395  0.00  0.00    +0.000 A 
ATOM     19  S1  UNL     1      23.976  -6.706 -46.481  0.00  0.00    +0.000 S 
ENDBRANCH   8  11
ENDBRANCH   2   5
BRANCH   1  21
ATOM     20  C6  UNL     1      27.798  -9.926 -37.953  0.00  0.00    +0.000 C 
ATOM     21  N1  UNL     1      27.427  -8.845 -38.571  0.00  0.00    +0.000 NA
BRANCH  20  25
ATOM     22  C2  UNL     1      29.585  -9.769 -33.956  0.00  0.00    +0.000 C 
ATOM     23  C3  UNL     1      30.492  -9.683 -35.172  0.00  0.00    +0.000 C 
ATOM     24  C4  UNL     1      29.783  -9.745 -36.503  0.00  0.00    +0.000 C 
ATOM     25  C5  UNL     1      28.449  -9.868 -36.623  0.00  0.00    +0.000 C 
ATOM     26  C21 UNL     1      27.624  -9.947 -35.401  0.00  0.00    +0.000 C 
ATOM     27  O3  UNL     1      26.372 -10.064 -35.477  0.00  0.00    +0.000 OA
ATOM     28  C22 UNL     1      28.260  -9.891 -34.082  0.00  0.00    +0.000 C 
BRANCH  22  30
ATOM     29  C1  UNL     1      31.275  -8.975 -32.304  0.00  0.00    +0.000 C 
ATOM     30  O1  UNL     1      30.118  -9.723 -32.660  0.00  0.00    +0.000 OA
ENDBRANCH  22  30
ENDBRANCH  20  25
ENDBRANCH   1  21
TORSDOF 5
ENDMDL
MODEL 3
REMARK VINA RESULT:    -6.104      1.102      1.437
REMARK INTER + INTRA:          -8.365
REMARK INTER:                  -7.867
REMARK INTRA:                  -0.497
REMARK UNBOUND:                -0.477
REMARK  Name = resultss/4CJN/ligands/lig_166_t2.pdb
REMARK  6 active torsions:
REMARK  status: ('A' for Active; 'I' for Inactive)
REMARK    1  A    between atoms: C1_1  and  O1_2
REMARK    2  A    between atoms: O1_2  and  C2_3
REMARK    3  A    between atoms: C5_6  and  C6_7
REMARK    4  A    between atoms: N1_8  and  N2_9
REMARK    5  A    between atoms: C7_10  and  C8_12
REMARK    6  A    between atoms: C11_15  and  C12_16
REMARK                            x       y       z     vdW  Elec       q    Type
REMARK                         _______ _______ _______ _____ _____    ______ ____
ROOT
ATOM      1  N2  UNL     1      23.490  -8.927 -41.622  0.00  0.00    +0.000 N 
ATOM      2  C7  UNL     1      24.815  -9.472 -41.755  0.00  0.00    +0.000 C 
ATOM      3  O2  UNL     1      25.173  -9.978 -42.854  0.00  0.00    +0.000 OA
ATOM      4  H8  UNL     1      23.029  -8.967 -40.687  0.00  0.00    +0.000 HD
ENDROOT
BRANCH   2   5
ATOM      5  C8  UNL     1      25.748  -9.492 -40.603  0.00  0.00    +0.000 A 
ATOM      6  C9  UNL     1      25.409  -8.837 -39.406  0.00  0.00    +0.000 A 
ATOM      7  C10 UNL     1      26.279  -8.856 -38.312  0.00  0.00    +0.000 A 
ATOM      8  C11 UNL     1      27.507  -9.534 -38.388  0.00  0.00    +0.000 A 
ATOM      9  C19 UNL     1      27.842 -10.198 -39.581  0.00  0.00    +0.000 A 
ATOM     10  C20 UNL     1      26.972 -10.179 -40.674  0.00  0.00    +0.000 A 
BRANCH   8  11
ATOM     11  C12 UNL     1      28.423  -9.547 -37.223  0.00  0.00    +0.000 A 
ATOM     12  N3  UNL     1      27.988  -9.562 -35.937  0.00  0.00    +0.000 NA
ATOM     13  C13 UNL     1      29.026  -9.571 -35.062  0.00  0.00    +0.000 A 
ATOM     14  C14 UNL     1      28.887  -9.587 -33.673  0.00  0.00    +0.000 A 
ATOM     15  C15 UNL     1      30.046  -9.595 -32.878  0.00  0.00    +0.000 A 
ATOM     16  C16 UNL     1      31.323  -9.588 -33.477  0.00  0.00    +0.000 A 
ATOM     17  C17 UNL     1      31.450  -9.572 -34.875  0.00  0.00    +0.000 A 
ATOM     18  C18 UNL     1      30.285  -9.564 -35.638  0.00  0.00    +0.000 A 
ATOM     19  S1  UNL     1      30.121  -9.545 -37.306  0.00  0.00    +0.000 S 
ENDBRANCH   8  11
ENDBRANCH   2   5
BRANCH   1  21
ATOM     20  C6  UNL     1      22.586  -7.323 -43.139  0.00  0.00    +0.000 C 
ATOM     21  N1  UNL     1      22.697  -8.548 -42.721  0.00  0.00    +0.000 NA
BRANCH  20  25
ATOM     22  C2  UNL     1      19.992  -6.301 -46.520  0.00  0.00    +0.000 C 
ATOM     23  C3  UNL     1      21.453  -6.624 -46.783  0.00  0.00    +0.000 C 
ATOM     24  C4  UNL     1      22.264  -6.964 -45.556  0.00  0.00    +0.000 C 
ATOM     25  C5  UNL     1      21.748  -6.984 -44.315  0.00  0.00    +0.000 C 
ATOM     26  C21 UNL     1      20.321  -6.660 -44.126  0.00  0.00    +0.000 C 
ATOM     27  O3  UNL     1      19.805  -6.668 -42.976  0.00  0.00    +0.000 OA
ATOM     28  C22 UNL     1      19.486  -6.323 -45.283  0.00  0.00    +0.000 C 
BRANCH  22  30
ATOM     29  C1  UNL     1      18.274  -6.903 -48.223  0.00  0.00    +0.000 C 
ATOM     30  O1  UNL     1      19.130  -5.969 -47.574  0.00  0.00    +0.000 OA
ENDBRANCH  22  30
ENDBRANCH  20  25
ENDBRANCH   1  21
TORSDOF 5
ENDMDL
MODEL 4
REMARK VINA RESULT:    -6.018      1.226      1.873
REMARK INTER + INTRA:          -8.253
REMARK INTER:                  -7.747
REMARK INTRA:                  -0.506
REMARK UNBOUND:                -0.477
REMARK  Name = resultss/4CJN/ligands/lig_166_t2.pdb
REMARK  6 active torsions:
REMARK  status: ('A' for Active; 'I' for Inactive)
REMARK    1  A    between atoms: C1_1  and  O1_2
REMARK    2  A    between atoms: O1_2  and  C2_3
REMARK    3  A    between atoms: C5_6  and  C6_7
REMARK    4  A    between atoms: N1_8  and  N2_9
REMARK    5  A    between atoms: C7_10  and  C8_12
REMARK    6  A    between atoms: C11_15  and  C12_16
REMARK                            x       y       z     vdW  Elec       q    Type
REMARK                         _______ _______ _______ _____ _____    ______ ____
ROOT
ATOM      1  N2  UNL     1      23.853  -8.892 -40.928  0.00  0.00    +0.000 N 
ATOM      2  C7  UNL     1      25.128  -9.557 -40.929  0.00  0.00    +0.000 C 
ATOM      3  O2  UNL     1      25.504 -10.182 -41.958  0.00  0.00    +0.000 OA
ATOM      4  H8  UNL     1      23.335  -8.813 -40.025  0.00  0.00    +0.000 HD
ENDROOT
BRANCH   2   5
ATOM      5  C8  UNL     1      25.985  -9.560 -39.718  0.00  0.00    +0.000 A 
ATOM      6  C9  UNL     1      27.196 -10.275 -39.710  0.00  0.00    +0.000 A 
ATOM      7  C10 UNL     1      28.013 -10.279 -38.577  0.00  0.00    +0.000 A 
ATOM      8  C11 UNL     1      27.641  -9.565 -37.425  0.00  0.00    +0.000 A 
ATOM      9  C19 UNL     1      26.436  -8.842 -37.436  0.00  0.00    +0.000 A 
ATOM     10  C20 UNL     1      25.619  -8.838 -38.569  0.00  0.00    +0.000 A 
BRANCH   8  11
ATOM     11  C12 UNL     1      28.515  -9.576 -36.228  0.00  0.00    +0.000 A 
ATOM     12  N3  UNL     1      29.869  -9.502 -36.297  0.00  0.00    +0.000 NA
ATOM     13  C13 UNL     1      30.431  -9.533 -35.061  0.00  0.00    +0.000 A 
ATOM     14  C14 UNL     1      31.803  -9.473 -34.817  0.00  0.00    +0.000 A 
ATOM     15  C15 UNL     1      32.256  -9.513 -33.487  0.00  0.00    +0.000 A 
ATOM     16  C16 UNL     1      31.336  -9.612 -32.423  0.00  0.00    +0.000 A 
ATOM     17  C17 UNL     1      29.957  -9.671 -32.681  0.00  0.00    +0.000 A 
ATOM     18  C18 UNL     1      29.537  -9.629 -34.008  0.00  0.00    +0.000 A 
ATOM     19  S1  UNL     1      27.977  -9.681 -34.619  0.00  0.00    +0.000 S 
ENDBRANCH   8  11
ENDBRANCH   2   5
BRANCH   1  21
ATOM     20  C6  UNL     1      23.332  -7.411 -42.725  0.00  0.00    +0.000 C 
ATOM     21  N1  UNL     1      23.164  -8.540 -42.104  0.00  0.00    +0.000 NA
BRANCH  20  25
ATOM     22  C2  UNL     1      21.272  -6.519 -46.488  0.00  0.00    +0.000 C 
ATOM     23  C3  UNL     1      20.484  -6.480 -45.190  0.00  0.00    +0.000 C 
ATOM     24  C4  UNL     1      21.281  -6.800 -43.949  0.00  0.00    +0.000 C 
ATOM     25  C5  UNL     1      22.591  -7.101 -43.971  0.00  0.00    +0.000 C 
ATOM     26  C21 UNL     1      23.299  -7.124 -45.267  0.00  0.00    +0.000 C 
ATOM     27  O3  UNL     1      24.527  -7.403 -45.325  0.00  0.00    +0.000 OA
ATOM     28  C22 UNL     1      22.574  -6.819 -46.504  0.00  0.00    +0.000 C 
BRANCH  22  30
ATOM     29  C1  UNL     1      21.196  -6.596 -48.979  0.00  0.00    +0.000 C 
ATOM     30  O1  UNL     1      20.650  -6.240 -47.713  0.00  0.00    +0.000 OA
ENDBRANCH  22  30
ENDBRANCH  20  25
ENDBRANCH   1  21
TORSDOF 5
ENDMDL
MODEL 5
REMARK VINA RESULT:    -5.470      2.185      3.641
REMARK INTER + INTRA:          -7.545
REMARK INTER:                  -7.057
REMARK INTRA:                  -0.488
REMARK UNBOUND:                -0.477
REMARK  Name = resultss/4CJN/ligands/lig_166_t2.pdb
REMARK  6 active torsions:
REMARK  status: ('A' for Active; 'I' for Inactive)
REMARK    1  A    between atoms: C1_1  and  O1_2
REMARK    2  A    between atoms: O1_2  and  C2_3
REMARK    3  A    between atoms: C5_6  and  C6_7
REMARK    4  A    between atoms: N1_8  and  N2_9
REMARK    5  A    between atoms: C7_10  and  C8_12
REMARK    6  A    between atoms: C11_15  and  C12_16
REMARK                            x       y       z     vdW  Elec       q    Type
REMARK                         _______ _______ _______ _____ _____    ______ ____
ROOT
ATOM      1  N2  UNL     1      25.455  -9.171 -38.967  0.00  0.00    +0.000 N 
ATOM      2  C7  UNL     1      26.736  -9.825 -38.990  0.00  0.00    +0.000 C 
ATOM      3  O2  UNL     1      27.058 -10.531 -39.985  0.00  0.00    +0.000 OA
ATOM      4  H8  UNL     1      24.991  -9.022 -38.044  0.00  0.00    +0.000 HD
ENDROOT
BRANCH   2   5
ATOM      5  C8  UNL     1      27.664  -9.722 -37.838  0.00  0.00    +0.000 A 
ATOM      6  C9  UNL     1      27.174  -9.396 -36.561  0.00  0.00    +0.000 A 
ATOM      7  C10 UNL     1      28.039  -9.301 -35.468  0.00  0.00    +0.000 A 
ATOM      8  C11 UNL     1      29.416  -9.536 -35.625  0.00  0.00    +0.000 A 
ATOM      9  C19 UNL     1      29.906  -9.871 -36.899  0.00  0.00    +0.000 A 
ATOM     10  C20 UNL     1      29.040  -9.966 -37.992  0.00  0.00    +0.000 A 
BRANCH   8  11
ATOM     11  C12 UNL     1      30.325  -9.432 -34.459  0.00  0.00    +0.000 A 
ATOM     12  N3  UNL     1      30.660 -10.494 -33.682  0.00  0.00    +0.000 NA
ATOM     13  C13 UNL     1      31.504 -10.132 -32.683  0.00  0.00    +0.000 A 
ATOM     14  C14 UNL     1      32.018 -11.009 -31.727  0.00  0.00    +0.000 A 
ATOM     15  C15 UNL     1      32.886 -10.504 -30.744  0.00  0.00    +0.000 A 
ATOM     16  C16 UNL     1      33.228  -9.136 -30.727  0.00  0.00    +0.000 A 
ATOM     17  C17 UNL     1      32.704  -8.263 -31.694  0.00  0.00    +0.000 A 
ATOM     18  C18 UNL     1      31.847  -8.790 -32.657  0.00  0.00    +0.000 A 
ATOM     19  S1  UNL     1      31.077  -8.005 -33.921  0.00  0.00    +0.000 S 
ENDBRANCH   8  11
ENDBRANCH   2   5
BRANCH   1  21
ATOM     20  C6  UNL     1      24.904  -7.920 -40.922  0.00  0.00    +0.000 C 
ATOM     21  N1  UNL     1      24.693  -8.924 -40.124  0.00  0.00    +0.000 NA
BRANCH  20  25
ATOM     22  C2  UNL     1      22.594  -7.343 -44.601  0.00  0.00    +0.000 C 
ATOM     23  C3  UNL     1      21.874  -7.293 -43.264  0.00  0.00    +0.000 C 
ATOM     24  C4  UNL     1      22.755  -7.502 -42.056  0.00  0.00    +0.000 C 
ATOM     25  C5  UNL     1      24.080  -7.719 -42.138  0.00  0.00    +0.000 C 
ATOM     26  C21 UNL     1      24.718  -7.757 -43.468  0.00  0.00    +0.000 C 
ATOM     27  O3  UNL     1      25.957  -7.959 -43.582  0.00  0.00    +0.000 OA
ATOM     28  C22 UNL     1      23.910  -7.559 -44.676  0.00  0.00    +0.000 C 
BRANCH  22  30
ATOM     29  C1  UNL     1      22.440  -7.424 -47.088  0.00  0.00    +0.000 C 
ATOM     30  O1  UNL     1      21.891  -7.164 -45.801  0.00  0.00    +0.000 OA
ENDBRANCH  22  30
ENDBRANCH  20  25
ENDBRANCH   1  21
TORSDOF 5
ENDMDL
MODEL 6
REMARK VINA RESULT:    -4.875      4.356     12.176
REMARK INTER + INTRA:          -6.777
REMARK INTER:                  -6.311
REMARK INTRA:                  -0.466
REMARK UNBOUND:                -0.477
REMARK  Name = resultss/4CJN/ligands/lig_166_t2.pdb
REMARK  6 active torsions:
REMARK  status: ('A' for Active; 'I' for Inactive)
REMARK    1  A    between atoms: C1_1  and  O1_2
REMARK    2  A    between atoms: O1_2  and  C2_3
REMARK    3  A    between atoms: C5_6  and  C6_7
REMARK    4  A    between atoms: N1_8  and  N2_9
REMARK    5  A    between atoms: C7_10  and  C8_12
REMARK    6  A    between atoms: C11_15  and  C12_16
REMARK                            x       y       z     vdW  Elec       q    Type
REMARK                         _______ _______ _______ _____ _____    ______ ____
ROOT
ATOM      1  N2  UNL     1      24.848  -8.505 -40.746  0.00  0.00    +0.000 N 
ATOM      2  C7  UNL     1      24.147  -7.250 -40.779  0.00  0.00    +0.000 C 
ATOM      3  O2  UNL     1      24.590  -6.271 -40.117  0.00  0.00    +0.000 OA
ATOM      4  H8  UNL     1      24.295  -9.385 -40.849  0.00  0.00    +0.000 HD
ENDROOT
BRANCH   2   5
ATOM      5  C8  UNL     1      22.883  -7.104 -41.542  0.00  0.00    +0.000 A 
ATOM      6  C9  UNL     1      22.679  -7.843 -42.721  0.00  0.00    +0.000 A 
ATOM      7  C10 UNL     1      21.490  -7.717 -43.443  0.00  0.00    +0.000 A 
ATOM      8  C11 UNL     1      20.473  -6.853 -43.002  0.00  0.00    +0.000 A 
ATOM      9  C19 UNL     1      20.673  -6.121 -41.818  0.00  0.00    +0.000 A 
ATOM     10  C20 UNL     1      21.862  -6.247 -41.096  0.00  0.00    +0.000 A 
BRANCH   8  11
ATOM     11  C12 UNL     1      19.216  -6.726 -43.776  0.00  0.00    +0.000 A 
ATOM     12  N3  UNL     1      17.986  -6.732 -43.201  0.00  0.00    +0.000 NA
ATOM     13  C13 UNL     1      17.004  -6.602 -44.128  0.00  0.00    +0.000 A 
ATOM     14  C14 UNL     1      15.640  -6.576 -43.834  0.00  0.00    +0.000 A 
ATOM     15  C15 UNL     1      14.723  -6.435 -44.891  0.00  0.00    +0.000 A 
ATOM     16  C16 UNL     1      15.179  -6.324 -46.221  0.00  0.00    +0.000 A 
ATOM     17  C17 UNL     1      16.553  -6.352 -46.504  0.00  0.00    +0.000 A 
ATOM     18  C18 UNL     1      17.439  -6.492 -45.438  0.00  0.00    +0.000 A 
ATOM     19  S1  UNL     1      19.113  -6.557 -45.465  0.00  0.00    +0.000 S 
ENDBRANCH   8  11
ENDBRANCH   2   5
BRANCH   1  21
ATOM     20  C6  UNL     1      26.623  -9.503 -39.502  0.00  0.00    +0.000 C 
ATOM     21  N1  UNL     1      26.196  -8.627 -40.362  0.00  0.00    +0.000 NA
BRANCH  20  25
ATOM     22  C2  UNL     1      30.829  -9.836 -38.319  0.00  0.00    +0.000 C 
ATOM     23  C3  UNL     1      30.493  -9.336 -39.714  0.00  0.00    +0.000 C 
ATOM     24  C4  UNL     1      29.019  -9.256 -40.027  0.00  0.00    +0.000 C 
ATOM     25  C5  UNL     1      28.060  -9.597 -39.149  0.00  0.00    +0.000 C 
ATOM     26  C21 UNL     1      28.452 -10.077 -37.809  0.00  0.00    +0.000 C 
ATOM     27  O3  UNL     1      27.579 -10.406 -36.962  0.00  0.00    +0.000 OA
ATOM     28  C22 UNL     1      29.871 -10.174 -37.451  0.00  0.00    +0.000 C 
BRANCH  22  30
ATOM     29  C1  UNL     1      33.282  -9.744 -38.754  0.00  0.00    +0.000 C 
ATOM     30  O1  UNL     1      32.162  -9.957 -37.902  0.00  0.00    +0.000 OA
ENDBRANCH  22  30
ENDBRANCH  20  25
ENDBRANCH   1  21
TORSDOF 5
ENDMDL
MODEL 7
REMARK VINA RESULT:    -4.845      4.151     12.492
REMARK INTER + INTRA:          -6.738
REMARK INTER:                  -6.361
REMARK INTRA:                  -0.377
REMARK UNBOUND:                -0.477
REMARK  Name = resultss/4CJN/ligands/lig_166_t2.pdb
REMARK  6 active torsions:
REMARK  status: ('A' for Active; 'I' for Inactive)
REMARK    1  A    between atoms: C1_1  and  O1_2
REMARK    2  A    between atoms: O1_2  and  C2_3
REMARK    3  A    between atoms: C5_6  and  C6_7
REMARK    4  A    between atoms: N1_8  and  N2_9
REMARK    5  A    between atoms: C7_10  and  C8_12
REMARK    6  A    between atoms: C11_15  and  C12_16
REMARK                            x       y       z     vdW  Elec       q    Type
REMARK                         _______ _______ _______ _____ _____    ______ ____
ROOT
ATOM      1  N2  UNL     1      27.465  -8.664 -37.786  0.00  0.00    +0.000 N 
ATOM      2  C7  UNL     1      26.849  -7.448 -38.246  0.00  0.00    +0.000 C 
ATOM      3  O2  UNL     1      26.817  -6.440 -37.489  0.00  0.00    +0.000 OA
ATOM      4  H8  UNL     1      27.095  -9.573 -38.140  0.00  0.00    +0.000 HD
ENDROOT
BRANCH   2   5
ATOM      5  C8  UNL     1      26.206  -7.380 -39.581  0.00  0.00    +0.000 A 
ATOM      6  C9  UNL     1      26.471  -8.368 -40.546  0.00  0.00    +0.000 A 
ATOM      7  C10 UNL     1      25.866  -8.315 -41.804  0.00  0.00    +0.000 A 
ATOM      8  C11 UNL     1      24.976  -7.276 -42.126  0.00  0.00    +0.000 A 
ATOM      9  C19 UNL     1      24.702  -6.294 -41.159  0.00  0.00    +0.000 A 
ATOM     10  C20 UNL     1      25.308  -6.347 -39.900  0.00  0.00    +0.000 A 
BRANCH   8  11
ATOM     11  C12 UNL     1      24.340  -7.230 -43.464  0.00  0.00    +0.000 A 
ATOM     12  N3  UNL     1      25.048  -7.222 -44.623  0.00  0.00    +0.000 NA
ATOM     13  C13 UNL     1      24.229  -7.176 -45.704  0.00  0.00    +0.000 A 
ATOM     14  C14 UNL     1      24.670  -7.157 -47.028  0.00  0.00    +0.000 A 
ATOM     15  C15 UNL     1      23.715  -7.110 -48.058  0.00  0.00    +0.000 A 
ATOM     16  C16 UNL     1      22.339  -7.081 -47.755  0.00  0.00    +0.000 A 
ATOM     17  C17 UNL     1      21.907  -7.101 -46.420  0.00  0.00    +0.000 A 
ATOM     18  C18 UNL     1      22.874  -7.148 -45.419  0.00  0.00    +0.000 A 
ATOM     19  S1  UNL     1      22.666  -7.180 -43.756  0.00  0.00    +0.000 S 
ENDBRANCH   8  11
ENDBRANCH   2   5
BRANCH   1  21
ATOM     20  C6  UNL     1      29.305  -9.618 -36.604  0.00  0.00    +0.000 C 
ATOM     21  N1  UNL     1      28.386  -8.708 -36.722  0.00  0.00    +0.000 NA
BRANCH  20  25
ATOM     22  C2  UNL     1      32.013  -9.617 -33.159  0.00  0.00    +0.000 C 
ATOM     23  C3  UNL     1      32.572  -9.301 -34.535  0.00  0.00    +0.000 C 
ATOM     24  C4  UNL     1      31.562  -9.326 -35.657  0.00  0.00    +0.000 C 
ATOM     25  C5  UNL     1      30.260  -9.604 -35.470  0.00  0.00    +0.000 C 
ATOM     26  C21 UNL     1      29.780  -9.904 -34.106  0.00  0.00    +0.000 C 
ATOM     27  O3  UNL     1      28.567 -10.171 -33.895  0.00  0.00    +0.000 OA
ATOM     28  C22 UNL     1      30.718  -9.894 -32.980  0.00  0.00    +0.000 C 
BRANCH  22  30
ATOM     29  C1  UNL     1      33.005  -8.518 -31.153  0.00  0.00    +0.000 C 
ATOM     30  O1  UNL     1      32.846  -9.627 -32.031  0.00  0.00    +0.000 OA
ENDBRANCH  22  30
ENDBRANCH  20  25
ENDBRANCH   1  21
TORSDOF 5
ENDMDL
MODEL 8
REMARK VINA RESULT:    -4.761      2.223      3.328
REMARK INTER + INTRA:          -6.629
REMARK INTER:                  -6.345
REMARK INTRA:                  -0.284
REMARK UNBOUND:                -0.477
REMARK  Name = resultss/4CJN/ligands/lig_166_t2.pdb
REMARK  6 active torsions:
REMARK  status: ('A' for Active; 'I' for Inactive)
REMARK    1  A    between atoms: C1_1  and  O1_2
REMARK    2  A    between atoms: O1_2  and  C2_3
REMARK    3  A    between atoms: C5_6  and  C6_7
REMARK    4  A    between atoms: N1_8  and  N2_9
REMARK    5  A    between atoms: C7_10  and  C8_12
REMARK    6  A    between atoms: C11_15  and  C12_16
REMARK                            x       y       z     vdW  Elec       q    Type
REMARK                         _______ _______ _______ _____ _____    ______ ____
ROOT
ATOM      1  N2  UNL     1      26.440  -6.937 -40.795  0.00  0.00    +0.000 N 
ATOM      2  C7  UNL     1      26.210  -8.089 -39.966  0.00  0.00    +0.000 C 
ATOM      3  O2  UNL     1      25.204  -8.820 -40.179  0.00  0.00    +0.000 OA
ATOM      4  H8  UNL     1      26.915  -6.109 -40.374  0.00  0.00    +0.000 HD
ENDROOT
BRANCH   2   5
ATOM      5  C8  UNL     1      27.112  -8.401 -38.830  0.00  0.00    +0.000 A 
ATOM      6  C9  UNL     1      27.857  -7.379 -38.217  0.00  0.00    +0.000 A 
ATOM      7  C10 UNL     1      28.705  -7.662 -37.143  0.00  0.00    +0.000 A 
ATOM      8  C11 UNL     1      28.825  -8.974 -36.654  0.00  0.00    +0.000 A 
ATOM      9  C19 UNL     1      28.073  -9.995 -37.260  0.00  0.00    +0.000 A 
ATOM     10  C20 UNL     1      27.224  -9.711 -38.334  0.00  0.00    +0.000 A 
BRANCH   8  11
ATOM     11  C12 UNL     1      29.728  -9.263 -35.515  0.00  0.00    +0.000 A 
ATOM     12  N3  UNL     1      31.080  -9.169 -35.596  0.00  0.00    +0.000 NA
ATOM     13  C13 UNL     1      31.672  -9.487 -34.417  0.00  0.00    +0.000 A 
ATOM     14  C14 UNL     1      33.050  -9.480 -34.199  0.00  0.00    +0.000 A 
ATOM     15  C15 UNL     1      33.535  -9.830 -32.927  0.00  0.00    +0.000 A 
ATOM     16  C16 UNL     1      32.641 -10.181 -31.894  0.00  0.00    +0.000 A 
ATOM     17  C17 UNL     1      31.257 -10.185 -32.125  0.00  0.00    +0.000 A 
ATOM     18  C18 UNL     1      30.804  -9.833 -33.395  0.00  0.00    +0.000 A 
ATOM     19  S1  UNL     1      29.230  -9.748 -33.963  0.00  0.00    +0.000 S 
ENDBRANCH   8  11
ENDBRANCH   2   5
BRANCH   1  21
ATOM     20  C6  UNL     1      26.118  -7.562 -43.076  0.00  0.00    +0.000 C 
ATOM     21  N1  UNL     1      25.867  -6.777 -42.071  0.00  0.00    +0.000 NA
BRANCH  20  25
ATOM     22  C2  UNL     1      24.070  -6.979 -46.905  0.00  0.00    +0.000 C 
ATOM     23  C3  UNL     1      25.579  -6.821 -46.846  0.00  0.00    +0.000 C 
ATOM     24  C4  UNL     1      26.192  -7.042 -45.484  0.00  0.00    +0.000 C 
ATOM     25  C5  UNL     1      25.471  -7.356 -44.394  0.00  0.00    +0.000 C 
ATOM     26  C21 UNL     1      24.007  -7.493 -44.518  0.00  0.00    +0.000 C 
ATOM     27  O3  UNL     1      23.300  -7.785 -43.516  0.00  0.00    +0.000 OA
ATOM     28  C22 UNL     1      23.359  -7.290 -45.817  0.00  0.00    +0.000 C 
BRANCH  22  30
ATOM     29  C1  UNL     1      21.967  -6.946 -48.244  0.00  0.00    +0.000 C 
ATOM     30  O1  UNL     1      23.377  -6.800 -48.111  0.00  0.00    +0.000 OA
ENDBRANCH  22  30
ENDBRANCH  20  25
ENDBRANCH   1  21
TORSDOF 5
ENDMDL
MODEL 9
REMARK VINA RESULT:    -4.646      3.947     12.387
REMARK INTER + INTRA:          -6.480
REMARK INTER:                  -6.011
REMARK INTRA:                  -0.469
REMARK UNBOUND:                -0.477
REMARK  Name = resultss/4CJN/ligands/lig_166_t2.pdb
REMARK  6 active torsions:
REMARK  status: ('A' for Active; 'I' for Inactive)
REMARK    1  A    between atoms: C1_1  and  O1_2
REMARK    2  A    between atoms: O1_2  and  C2_3
REMARK    3  A    between atoms: C5_6  and  C6_7
REMARK    4  A    between atoms: N1_8  and  N2_9
REMARK    5  A    between atoms: C7_10  and  C8_12
REMARK    6  A    between atoms: C11_15  and  C12_16
REMARK                            x       y       z     vdW  Elec       q    Type
REMARK                         _______ _______ _______ _____ _____    ______ ____
ROOT
ATOM      1  N2  UNL     1      25.530  -7.783 -39.575  0.00  0.00    +0.000 N 
ATOM      2  C7  UNL     1      25.635  -7.408 -40.959  0.00  0.00    +0.000 C 
ATOM      3  O2  UNL     1      26.765  -7.131 -41.447  0.00  0.00    +0.000 OA
ATOM      4  H8  UNL     1      24.655  -7.542 -39.060  0.00  0.00    +0.000 HD
ENDROOT
BRANCH   2   5
ATOM      5  C8  UNL     1      24.425  -7.294 -41.809  0.00  0.00    +0.000 A 
ATOM      6  C9  UNL     1      23.173  -7.028 -41.227  0.00  0.00    +0.000 A 
ATOM      7  C10 UNL     1      22.028  -6.913 -42.020  0.00  0.00    +0.000 A 
ATOM      8  C11 UNL     1      22.108  -7.057 -43.416  0.00  0.00    +0.000 A 
ATOM      9  C19 UNL     1      23.361  -7.313 -43.999  0.00  0.00    +0.000 A 
ATOM     10  C20 UNL     1      24.506  -7.428 -43.206  0.00  0.00    +0.000 A 
BRANCH   8  11
ATOM     11  C12 UNL     1      20.888  -6.934 -44.247  0.00  0.00    +0.000 A 
ATOM     12  N3  UNL     1      20.907  -6.972 -45.605  0.00  0.00    +0.000 NA
ATOM     13  C13 UNL     1      19.660  -6.837 -46.123  0.00  0.00    +0.000 A 
ATOM     14  C14 UNL     1      19.368  -6.839 -47.487  0.00  0.00    +0.000 A 
ATOM     15  C15 UNL     1      18.030  -6.691 -47.892  0.00  0.00    +0.000 A 
ATOM     16  C16 UNL     1      17.006  -6.544 -46.934  0.00  0.00    +0.000 A 
ATOM     17  C17 UNL     1      17.312  -6.545 -45.565  0.00  0.00    +0.000 A 
ATOM     18  C18 UNL     1      18.645  -6.693 -45.191  0.00  0.00    +0.000 A 
ATOM     19  S1  UNL     1      19.308  -6.731 -43.652  0.00  0.00    +0.000 S 
ENDBRANCH   8  11
ENDBRANCH   2   5
BRANCH   1  21
ATOM     20  C6  UNL     1      26.818  -7.944 -37.572  0.00  0.00    +0.000 C 
ATOM     21  N1  UNL     1      26.620  -8.254 -38.818  0.00  0.00    +0.000 NA
BRANCH  20  25
ATOM     22  C2  UNL     1      30.187  -9.470 -35.222  0.00  0.00    +0.000 C 
ATOM     23  C3  UNL     1      30.065  -9.872 -36.682  0.00  0.00    +0.000 C 
ATOM     24  C4  UNL     1      28.873  -9.295 -37.407  0.00  0.00    +0.000 C 
ATOM     25  C5  UNL     1      27.975  -8.485 -36.819  0.00  0.00    +0.000 C 
ATOM     26  C21 UNL     1      28.149  -8.134 -35.396  0.00  0.00    +0.000 C 
ATOM     27  O3  UNL     1      27.325  -7.379 -34.814  0.00  0.00    +0.000 OA
ATOM     28  C22 UNL     1      29.290  -8.665 -34.644  0.00  0.00    +0.000 C 
BRANCH  22  30
ATOM     29  C1  UNL     1      31.194 -10.056 -33.018  0.00  0.00    +0.000 C 
ATOM     30  O1  UNL     1      31.249  -9.938 -34.436  0.00  0.00    +0.000 OA
ENDBRANCH  22  30
ENDBRANCH  20  25
ENDBRANCH   1  21
TORSDOF 5
ENDMDL
