MODEL 1
REMARK VINA RESULT:    -5.421      0.000      0.000
REMARK INTER + INTRA:          -6.347
REMARK INTER:                  -6.055
REMARK INTRA:                  -0.292
REMARK UNBOUND:                -0.292
REMARK  Name = resultss/4CJN/ligands/lig_37_t2.pdb
REMARK  3 active torsions:
REMARK  status: ('A' for Active; 'I' for Inactive)
REMARK    1  A    between atoms: C2_3  and  C3_4
REMARK    2  A    between atoms: C6_7  and  O2_8
REMARK    3  A    between atoms: C12_15  and  O4_16
REMARK                            x       y       z     vdW  Elec       q    Type
REMARK                         _______ _______ _______ _____ _____    ______ ____
ROOT
ATOM      1  O1  UNL     1      26.713 -10.126 -36.890  0.00  0.00    +0.000 OA
ATOM      2  C1  UNL     1      25.968  -9.110 -36.886  0.00  0.00    +0.000 A 
ATOM      3  C2  UNL     1      25.808  -8.350 -38.060  0.00  0.00    +0.000 A 
ATOM      4  C9  UNL     1      24.938  -7.252 -38.024  0.00  0.00    +0.000 A 
ATOM      5  O3  UNL     1      24.293  -6.934 -36.909  0.00  0.00    +0.000 OA
ATOM      6  C10 UNL     1      24.422  -7.617 -35.775  0.00  0.00    +0.000 A 
ATOM      7  C11 UNL     1      23.635  -7.150 -34.575  0.00  0.00    +0.000 C 
ATOM      8  C12 UNL     1      23.813  -7.978 -33.323  0.00  0.00    +0.000 C 
ATOM      9  C13 UNL     1      24.620  -9.043 -33.274  0.00  0.00    +0.000 C 
ATOM     10  C14 UNL     1      25.387  -9.481 -34.444  0.00  0.00    +0.000 C 
ATOM     11  O5  UNL     1      26.139 -10.488 -34.340  0.00  0.00    +0.000 OA
ATOM     12  C15 UNL     1      25.270  -8.739 -35.718  0.00  0.00    +0.000 A 
ENDROOT
BRANCH   3  13
ATOM     13  C3  UNL     1      26.527  -8.683 -39.317  0.00  0.00    +0.000 A 
ATOM     14  C4  UNL     1      27.827  -8.201 -39.549  0.00  0.00    +0.000 A 
ATOM     15  C5  UNL     1      28.495  -8.512 -40.738  0.00  0.00    +0.000 A 
ATOM     16  C6  UNL     1      27.873  -9.301 -41.709  0.00  0.00    +0.000 A 
ATOM     17  C7  UNL     1      26.574  -9.779 -41.489  0.00  0.00    +0.000 A 
ATOM     18  C8  UNL     1      25.904  -9.471 -40.302  0.00  0.00    +0.000 A 
BRANCH  16  19
ATOM     19  O2  UNL     1      28.551  -9.603 -42.889  0.00  0.00    +0.000 OA
ATOM     20  H3  UNL     1      29.181  -8.939 -43.322  0.00  0.00    +0.000 HD
ENDBRANCH  16  19
ENDBRANCH   3  13
BRANCH   8  21
ATOM     21  O4  UNL     1      23.113  -7.620 -32.174  0.00  0.00    +0.000 OA
ATOM     22  H9  UNL     1      23.576  -7.149 -31.405  0.00  0.00    +0.000 HD
ENDBRANCH   8  21
TORSDOF 3
ENDMDL
MODEL 2
REMARK VINA RESULT:    -5.275      1.511      1.999
REMARK INTER + INTRA:          -6.183
REMARK INTER:                  -5.891
REMARK INTRA:                  -0.292
REMARK UNBOUND:                -0.292
REMARK  Name = resultss/4CJN/ligands/lig_37_t2.pdb
REMARK  3 active torsions:
REMARK  status: ('A' for Active; 'I' for Inactive)
REMARK    1  A    between atoms: C2_3  and  C3_4
REMARK    2  A    between atoms: C6_7  and  O2_8
REMARK    3  A    between atoms: C12_15  and  O4_16
REMARK                            x       y       z     vdW  Elec       q    Type
REMARK                         _______ _______ _______ _____ _____    ______ ____
ROOT
ATOM      1  O1  UNL     1      27.819 -10.403 -36.755  0.00  0.00    +0.000 OA
ATOM      2  C1  UNL     1      26.946  -9.595 -37.174  0.00  0.00    +0.000 A 
ATOM      3  C2  UNL     1      26.973  -9.162 -38.512  0.00  0.00    +0.000 A 
ATOM      4  C9  UNL     1      25.960  -8.297 -38.946  0.00  0.00    +0.000 A 
ATOM      5  O3  UNL     1      25.009  -7.891 -38.113  0.00  0.00    +0.000 OA
ATOM      6  C10 UNL     1      24.951  -8.267 -36.839  0.00  0.00    +0.000 A 
ATOM      7  C11 UNL     1      23.821  -7.732 -35.995  0.00  0.00    +0.000 C 
ATOM      8  C12 UNL     1      23.804  -8.211 -34.560  0.00  0.00    +0.000 C 
ATOM      9  C13 UNL     1      24.729  -9.039 -34.068  0.00  0.00    +0.000 C 
ATOM     10  C14 UNL     1      25.829  -9.545 -34.895  0.00  0.00    +0.000 C 
ATOM     11  O5  UNL     1      26.679 -10.318 -34.378  0.00  0.00    +0.000 OA
ATOM     12  C15 UNL     1      25.924  -9.140 -36.315  0.00  0.00    +0.000 A 
ENDROOT
BRANCH   3  13
ATOM     13  C3  UNL     1      28.031  -9.596 -39.459  0.00  0.00    +0.000 A 
ATOM     14  C4  UNL     1      27.856 -10.744 -40.253  0.00  0.00    +0.000 A 
ATOM     15  C5  UNL     1      28.860 -11.153 -41.136  0.00  0.00    +0.000 A 
ATOM     16  C6  UNL     1      30.050 -10.426 -41.236  0.00  0.00    +0.000 A 
ATOM     17  C7  UNL     1      30.235  -9.284 -40.443  0.00  0.00    +0.000 A 
ATOM     18  C8  UNL     1      29.233  -8.873 -39.559  0.00  0.00    +0.000 A 
BRANCH  16  19
ATOM     19  O2  UNL     1      31.041 -10.844 -42.121  0.00  0.00    +0.000 OA
ATOM     20  H3  UNL     1      31.833 -11.392 -41.808  0.00  0.00    +0.000 HD
ENDBRANCH  16  19
ENDBRANCH   3  13
BRANCH   8  21
ATOM     21  O4  UNL     1      22.786  -7.772 -33.717  0.00  0.00    +0.000 OA
ATOM     22  H9  UNL     1      21.822  -7.746 -34.030  0.00  0.00    +0.000 HD
ENDBRANCH   8  21
TORSDOF 3
ENDMDL
MODEL 3
REMARK VINA RESULT:    -5.246      1.401      2.463
REMARK INTER + INTRA:          -6.151
REMARK INTER:                  -5.876
REMARK INTRA:                  -0.275
REMARK UNBOUND:                -0.292
REMARK  Name = resultss/4CJN/ligands/lig_37_t2.pdb
REMARK  3 active torsions:
REMARK  status: ('A' for Active; 'I' for Inactive)
REMARK    1  A    between atoms: C2_3  and  C3_4
REMARK    2  A    between atoms: C6_7  and  O2_8
REMARK    3  A    between atoms: C12_15  and  O4_16
REMARK                            x       y       z     vdW  Elec       q    Type
REMARK                         _______ _______ _______ _____ _____    ______ ____
ROOT
ATOM      1  O1  UNL     1      25.379  -8.300 -38.150  0.00  0.00    +0.000 OA
ATOM      2  C1  UNL     1      25.859  -8.772 -37.084  0.00  0.00    +0.000 A 
ATOM      3  C2  UNL     1      27.079  -9.472 -37.111  0.00  0.00    +0.000 A 
ATOM      4  C9  UNL     1      27.597  -9.944 -35.898  0.00  0.00    +0.000 A 
ATOM      5  O3  UNL     1      26.947  -9.743 -34.758  0.00  0.00    +0.000 OA
ATOM      6  C10 UNL     1      25.787  -9.097 -34.688  0.00  0.00    +0.000 A 
ATOM      7  C11 UNL     1      25.147  -8.939 -33.331  0.00  0.00    +0.000 C 
ATOM      8  C12 UNL     1      23.838  -8.181 -33.318  0.00  0.00    +0.000 C 
ATOM      9  C13 UNL     1      23.279  -7.694 -34.429  0.00  0.00    +0.000 C 
ATOM     10  C14 UNL     1      23.905  -7.863 -35.744  0.00  0.00    +0.000 C 
ATOM     11  O5  UNL     1      23.330  -7.390 -36.761  0.00  0.00    +0.000 OA
ATOM     12  C15 UNL     1      25.193  -8.583 -35.856  0.00  0.00    +0.000 A 
ENDROOT
BRANCH   3  13
ATOM     13  C3  UNL     1      27.820  -9.714 -38.375  0.00  0.00    +0.000 A 
ATOM     14  C4  UNL     1      28.877  -8.871 -38.761  0.00  0.00    +0.000 A 
ATOM     15  C5  UNL     1      29.564  -9.099 -39.957  0.00  0.00    +0.000 A 
ATOM     16  C6  UNL     1      29.203 -10.167 -40.784  0.00  0.00    +0.000 A 
ATOM     17  C7  UNL     1      28.146 -11.009 -40.410  0.00  0.00    +0.000 A 
ATOM     18  C8  UNL     1      27.457 -10.783 -39.216  0.00  0.00    +0.000 A 
BRANCH  16  19
ATOM     19  O2  UNL     1      29.898 -10.383 -41.972  0.00  0.00    +0.000 OA
ATOM     20  H3  UNL     1      30.156 -11.316 -42.273  0.00  0.00    +0.000 HD
ENDBRANCH  16  19
ENDBRANCH   3  13
BRANCH   8  21
ATOM     21  O4  UNL     1      23.188  -7.982 -32.102  0.00  0.00    +0.000 OA
ATOM     22  H9  UNL     1      23.137  -7.062 -31.680  0.00  0.00    +0.000 HD
ENDBRANCH   8  21
TORSDOF 3
ENDMDL
MODEL 4
REMARK VINA RESULT:    -5.162      2.956      6.432
REMARK INTER + INTRA:          -6.058
REMARK INTER:                  -5.975
REMARK INTRA:                  -0.082
REMARK UNBOUND:                -0.292
REMARK  Name = resultss/4CJN/ligands/lig_37_t2.pdb
REMARK  3 active torsions:
REMARK  status: ('A' for Active; 'I' for Inactive)
REMARK    1  A    between atoms: C2_3  and  C3_4
REMARK    2  A    between atoms: C6_7  and  O2_8
REMARK    3  A    between atoms: C12_15  and  O4_16
REMARK                            x       y       z     vdW  Elec       q    Type
REMARK                         _______ _______ _______ _____ _____    ______ ____
ROOT
ATOM      1  O1  UNL     1      26.037  -7.961 -37.398  0.00  0.00    +0.000 OA
ATOM      2  C1  UNL     1      26.416  -8.815 -38.244  0.00  0.00    +0.000 A 
ATOM      3  C2  UNL     1      27.414  -9.747 -37.905  0.00  0.00    +0.000 A 
ATOM      4  C9  UNL     1      27.776 -10.705 -38.861  0.00  0.00    +0.000 A 
ATOM      5  O3  UNL     1      27.200 -10.722 -40.057  0.00  0.00    +0.000 OA
ATOM      6  C10 UNL     1      26.262  -9.854 -40.424  0.00  0.00    +0.000 A 
ATOM      7  C11 UNL     1      25.689  -9.978 -41.814  0.00  0.00    +0.000 C 
ATOM      8  C12 UNL     1      24.615  -8.972 -42.162  0.00  0.00    +0.000 C 
ATOM      9  C13 UNL     1      24.208  -8.030 -41.307  0.00  0.00    +0.000 C 
ATOM     10  C14 UNL     1      24.780  -7.912 -39.962  0.00  0.00    +0.000 C 
ATOM     11  O5  UNL     1      24.364  -7.000 -39.198  0.00  0.00    +0.000 OA
ATOM     12  C15 UNL     1      25.830  -8.859 -39.526  0.00  0.00    +0.000 A 
ENDROOT
BRANCH   3  13
ATOM     13  C3  UNL     1      28.077  -9.741 -36.576  0.00  0.00    +0.000 A 
ATOM     14  C4  UNL     1      29.463  -9.530 -36.467  0.00  0.00    +0.000 A 
ATOM     15  C5  UNL     1      30.083  -9.534 -35.213  0.00  0.00    +0.000 A 
ATOM     16  C6  UNL     1      29.330  -9.753 -34.056  0.00  0.00    +0.000 A 
ATOM     17  C7  UNL     1      27.949  -9.972 -34.157  0.00  0.00    +0.000 A 
ATOM     18  C8  UNL     1      27.327  -9.968 -35.408  0.00  0.00    +0.000 A 
BRANCH  16  19
ATOM     19  O2  UNL     1      29.961  -9.753 -32.814  0.00  0.00    +0.000 OA
ATOM     20  H3  UNL     1      29.434  -9.829 -31.952  0.00  0.00    +0.000 HD
ENDBRANCH  16  19
ENDBRANCH   3  13
BRANCH   8  21
ATOM     21  O4  UNL     1      24.027  -9.026 -43.423  0.00  0.00    +0.000 OA
ATOM     22  H9  UNL     1      23.542  -8.224 -43.809  0.00  0.00    +0.000 HD
ENDBRANCH   8  21
TORSDOF 3
ENDMDL
MODEL 5
REMARK VINA RESULT:    -5.141      2.733      6.421
REMARK INTER + INTRA:          -6.034
REMARK INTER:                  -6.314
REMARK INTRA:                   0.279
REMARK UNBOUND:                -0.292
REMARK  Name = resultss/4CJN/ligands/lig_37_t2.pdb
REMARK  3 active torsions:
REMARK  status: ('A' for Active; 'I' for Inactive)
REMARK    1  A    between atoms: C2_3  and  C3_4
REMARK    2  A    between atoms: C6_7  and  O2_8
REMARK    3  A    between atoms: C12_15  and  O4_16
REMARK                            x       y       z     vdW  Elec       q    Type
REMARK                         _______ _______ _______ _____ _____    ______ ____
ROOT
ATOM      1  O1  UNL     1      28.509 -10.159 -39.021  0.00  0.00    +0.000 OA
ATOM      2  C1  UNL     1      27.349  -9.679 -38.910  0.00  0.00    +0.000 A 
ATOM      3  C2  UNL     1      26.865  -9.290 -37.647  0.00  0.00    +0.000 A 
ATOM      4  C9  UNL     1      25.586  -8.724 -37.576  0.00  0.00    +0.000 A 
ATOM      5  O3  UNL     1      24.849  -8.569 -38.669  0.00  0.00    +0.000 OA
ATOM      6  C10 UNL     1      25.262  -8.931 -39.880  0.00  0.00    +0.000 A 
ATOM      7  C11 UNL     1      24.327  -8.706 -41.043  0.00  0.00    +0.000 C 
ATOM      8  C12 UNL     1      24.863  -9.124 -42.394  0.00  0.00    +0.000 C 
ATOM      9  C13 UNL     1      26.074  -9.668 -42.550  0.00  0.00    +0.000 C 
ATOM     10  C14 UNL     1      26.969  -9.892 -41.411  0.00  0.00    +0.000 C 
ATOM     11  O5  UNL     1      28.098 -10.416 -41.614  0.00  0.00    +0.000 OA
ATOM     12  C15 UNL     1      26.537  -9.505 -40.050  0.00  0.00    +0.000 A 
ENDROOT
BRANCH   3  13
ATOM     13  C3  UNL     1      27.668  -9.462 -36.410  0.00  0.00    +0.000 A 
ATOM     14  C4  UNL     1      29.065  -9.302 -36.434  0.00  0.00    +0.000 A 
ATOM     15  C5  UNL     1      29.817  -9.472 -35.268  0.00  0.00    +0.000 A 
ATOM     16  C6  UNL     1      29.187  -9.809 -34.066  0.00  0.00    +0.000 A 
ATOM     17  C7  UNL     1      27.796  -9.977 -34.035  0.00  0.00    +0.000 A 
ATOM     18  C8  UNL     1      27.041  -9.807 -35.200  0.00  0.00    +0.000 A 
BRANCH  16  19
ATOM     19  O2  UNL     1      29.948  -9.975 -32.912  0.00  0.00    +0.000 OA
ATOM     20  H3  UNL     1      29.840 -10.789 -32.318  0.00  0.00    +0.000 HD
ENDBRANCH  16  19
ENDBRANCH   3  13
BRANCH   8  21
ATOM     21  O4  UNL     1      24.066  -8.939 -43.520  0.00  0.00    +0.000 OA
ATOM     22  H9  UNL     1      23.071  -9.132 -43.495  0.00  0.00    +0.000 HD
ENDBRANCH   8  21
TORSDOF 3
ENDMDL
MODEL 6
REMARK VINA RESULT:    -5.127      5.507      7.261
REMARK INTER + INTRA:          -6.018
REMARK INTER:                  -5.756
REMARK INTRA:                  -0.262
REMARK UNBOUND:                -0.292
REMARK  Name = resultss/4CJN/ligands/lig_37_t2.pdb
REMARK  3 active torsions:
REMARK  status: ('A' for Active; 'I' for Inactive)
REMARK    1  A    between atoms: C2_3  and  C3_4
REMARK    2  A    between atoms: C6_7  and  O2_8
REMARK    3  A    between atoms: C12_15  and  O4_16
REMARK                            x       y       z     vdW  Elec       q    Type
REMARK                         _______ _______ _______ _____ _____    ______ ____
ROOT
ATOM      1  O1  UNL     1      28.083  -8.140 -43.926  0.00  0.00    +0.000 OA
ATOM      2  C1  UNL     1      27.290  -8.700 -43.121  0.00  0.00    +0.000 A 
ATOM      3  C2  UNL     1      27.789  -9.550 -42.117  0.00  0.00    +0.000 A 
ATOM      4  C9  UNL     1      26.877 -10.119 -41.219  0.00  0.00    +0.000 A 
ATOM      5  O3  UNL     1      25.577  -9.870 -41.322  0.00  0.00    +0.000 OA
ATOM      6  C10 UNL     1      25.061  -9.083 -42.261  0.00  0.00    +0.000 A 
ATOM      7  C11 UNL     1      23.565  -8.883 -42.273  0.00  0.00    +0.000 C 
ATOM      8  C12 UNL     1      23.044  -7.965 -43.354  0.00  0.00    +0.000 C 
ATOM      9  C13 UNL     1      23.847  -7.378 -44.247  0.00  0.00    +0.000 C 
ATOM     10  C14 UNL     1      25.298  -7.587 -44.233  0.00  0.00    +0.000 C 
ATOM     11  O5  UNL     1      26.007  -7.015 -45.103  0.00  0.00    +0.000 OA
ATOM     12  C15 UNL     1      25.902  -8.463 -43.205  0.00  0.00    +0.000 A 
ENDROOT
BRANCH   3  13
ATOM     13  C3  UNL     1      29.238  -9.848 -41.988  0.00  0.00    +0.000 A 
ATOM     14  C4  UNL     1      29.853 -10.796 -42.825  0.00  0.00    +0.000 A 
ATOM     15  C5  UNL     1      31.216 -11.079 -42.693  0.00  0.00    +0.000 A 
ATOM     16  C6  UNL     1      31.980 -10.424 -41.723  0.00  0.00    +0.000 A 
ATOM     17  C7  UNL     1      31.374  -9.483 -40.880  0.00  0.00    +0.000 A 
ATOM     18  C8  UNL     1      30.012  -9.198 -41.009  0.00  0.00    +0.000 A 
BRANCH  16  19
ATOM     19  O2  UNL     1      33.337 -10.716 -41.603  0.00  0.00    +0.000 OA
ATOM     20  H3  UNL     1      33.830 -10.592 -40.727  0.00  0.00    +0.000 HD
ENDBRANCH  16  19
ENDBRANCH   3  13
BRANCH   8  21
ATOM     21  O4  UNL     1      21.675  -7.720 -43.427  0.00  0.00    +0.000 OA
ATOM     22  H9  UNL     1      21.041  -8.406 -43.819  0.00  0.00    +0.000 HD
ENDBRANCH   8  21
TORSDOF 3
ENDMDL
MODEL 7
REMARK VINA RESULT:    -5.081      2.407      3.773
REMARK INTER + INTRA:          -5.967
REMARK INTER:                  -5.678
REMARK INTRA:                  -0.289
REMARK UNBOUND:                -0.292
REMARK  Name = resultss/4CJN/ligands/lig_37_t2.pdb
REMARK  3 active torsions:
REMARK  status: ('A' for Active; 'I' for Inactive)
REMARK    1  A    between atoms: C2_3  and  C3_4
REMARK    2  A    between atoms: C6_7  and  O2_8
REMARK    3  A    between atoms: C12_15  and  O4_16
REMARK                            x       y       z     vdW  Elec       q    Type
REMARK                         _______ _______ _______ _____ _____    ______ ____
ROOT
ATOM      1  O1  UNL     1      24.946  -8.579 -38.330  0.00  0.00    +0.000 OA
ATOM      2  C1  UNL     1      26.144  -8.967 -38.387  0.00  0.00    +0.000 A 
ATOM      3  C2  UNL     1      26.784  -9.096 -39.634  0.00  0.00    +0.000 A 
ATOM      4  C9  UNL     1      28.128  -9.490 -39.649  0.00  0.00    +0.000 A 
ATOM      5  O3  UNL     1      28.773  -9.745 -38.518  0.00  0.00    +0.000 OA
ATOM      6  C10 UNL     1      28.206  -9.646 -37.320  0.00  0.00    +0.000 A 
ATOM      7  C11 UNL     1      29.048  -9.968 -36.109  0.00  0.00    +0.000 C 
ATOM      8  C12 UNL     1      28.348  -9.821 -34.777  0.00  0.00    +0.000 C 
ATOM      9  C13 UNL     1      27.070  -9.445 -34.674  0.00  0.00    +0.000 C 
ATOM     10  C14 UNL     1      26.258  -9.146 -35.858  0.00  0.00    +0.000 C 
ATOM     11  O5  UNL     1      25.055  -8.803 -35.704  0.00  0.00    +0.000 OA
ATOM     12  C15 UNL     1      26.859  -9.252 -37.206  0.00  0.00    +0.000 A 
ENDROOT
BRANCH   3  13
ATOM     13  C3  UNL     1      26.078  -8.823 -40.912  0.00  0.00    +0.000 A 
ATOM     14  C4  UNL     1      26.130  -7.548 -41.503  0.00  0.00    +0.000 A 
ATOM     15  C5  UNL     1      25.456  -7.296 -42.702  0.00  0.00    +0.000 A 
ATOM     16  C6  UNL     1      24.721  -8.309 -43.323  0.00  0.00    +0.000 A 
ATOM     17  C7  UNL     1      24.658  -9.581 -42.737  0.00  0.00    +0.000 A 
ATOM     18  C8  UNL     1      25.331  -9.836 -41.539  0.00  0.00    +0.000 A 
BRANCH  16  19
ATOM     19  O2  UNL     1      24.055  -8.044 -44.518  0.00  0.00    +0.000 OA
ATOM     20  H3  UNL     1      23.047  -8.114 -44.590  0.00  0.00    +0.000 HD
ENDBRANCH  16  19
ENDBRANCH   3  13
BRANCH   8  21
ATOM     21  O4  UNL     1      29.060 -10.088 -33.611  0.00  0.00    +0.000 OA
ATOM     22  H9  UNL     1      30.070 -10.014 -33.585  0.00  0.00    +0.000 HD
ENDBRANCH   8  21
TORSDOF 3
ENDMDL
MODEL 8
REMARK VINA RESULT:    -5.061      1.609      7.051
REMARK INTER + INTRA:          -5.945
REMARK INTER:                  -5.701
REMARK INTRA:                  -0.243
REMARK UNBOUND:                -0.292
REMARK  Name = resultss/4CJN/ligands/lig_37_t2.pdb
REMARK  3 active torsions:
REMARK  status: ('A' for Active; 'I' for Inactive)
REMARK    1  A    between atoms: C2_3  and  C3_4
REMARK    2  A    between atoms: C6_7  and  O2_8
REMARK    3  A    between atoms: C12_15  and  O4_16
REMARK                            x       y       z     vdW  Elec       q    Type
REMARK                         _______ _______ _______ _____ _____    ______ ____
ROOT
ATOM      1  O1  UNL     1      24.815  -8.865 -37.918  0.00  0.00    +0.000 OA
ATOM      2  C1  UNL     1      26.040  -9.021 -37.664  0.00  0.00    +0.000 A 
ATOM      3  C2  UNL     1      26.522  -8.804 -36.360  0.00  0.00    +0.000 A 
ATOM      4  C9  UNL     1      27.882  -9.029 -36.113  0.00  0.00    +0.000 A 
ATOM      5  O3  UNL     1      28.693  -9.426 -37.085  0.00  0.00    +0.000 OA
ATOM      6  C10 UNL     1      28.283  -9.633 -38.333  0.00  0.00    +0.000 A 
ATOM      7  C11 UNL     1      29.306 -10.080 -39.348  0.00  0.00    +0.000 C 
ATOM      8  C12 UNL     1      28.773 -10.315 -40.743  0.00  0.00    +0.000 C 
ATOM      9  C13 UNL     1      27.489 -10.128 -41.062  0.00  0.00    +0.000 C 
ATOM     10  C14 UNL     1      26.505  -9.683 -40.070  0.00  0.00    +0.000 C 
ATOM     11  O5  UNL     1      25.308  -9.516 -40.427  0.00  0.00    +0.000 OA
ATOM     12  C15 UNL     1      26.932  -9.437 -38.674  0.00  0.00    +0.000 A 
ENDROOT
BRANCH   3  13
ATOM     13  C3  UNL     1      25.634  -8.352 -35.259  0.00  0.00    +0.000 A 
ATOM     14  C4  UNL     1      25.170  -9.261 -34.293  0.00  0.00    +0.000 A 
ATOM     15  C5  UNL     1      24.327  -8.831 -33.263  0.00  0.00    +0.000 A 
ATOM     16  C6  UNL     1      23.935  -7.492 -33.187  0.00  0.00    +0.000 A 
ATOM     17  C7  UNL     1      24.388  -6.580 -34.150  0.00  0.00    +0.000 A 
ATOM     18  C8  UNL     1      25.230  -7.007 -35.181  0.00  0.00    +0.000 A 
BRANCH  16  19
ATOM     19  O2  UNL     1      23.095  -7.077 -32.155  0.00  0.00    +0.000 OA
ATOM     20  H3  UNL     1      22.562  -7.741 -31.607  0.00  0.00    +0.000 HD
ENDBRANCH  16  19
ENDBRANCH   3  13
BRANCH   8  21
ATOM     21  O4  UNL     1      29.651 -10.739 -41.737  0.00  0.00    +0.000 OA
ATOM     22  H9  UNL     1      29.708 -10.257 -42.626  0.00  0.00    +0.000 HD
ENDBRANCH   8  21
TORSDOF 3
ENDMDL
MODEL 9
REMARK VINA RESULT:    -4.985      3.447      4.800
REMARK INTER + INTRA:          -5.860
REMARK INTER:                  -5.630
REMARK INTRA:                  -0.230
REMARK UNBOUND:                -0.292
REMARK  Name = resultss/4CJN/ligands/lig_37_t2.pdb
REMARK  3 active torsions:
REMARK  status: ('A' for Active; 'I' for Inactive)
REMARK    1  A    between atoms: C2_3  and  C3_4
REMARK    2  A    between atoms: C6_7  and  O2_8
REMARK    3  A    between atoms: C12_15  and  O4_16
REMARK                            x       y       z     vdW  Elec       q    Type
REMARK                         _______ _______ _______ _____ _____    ______ ____
ROOT
ATOM      1  O1  UNL     1      26.916 -10.000 -36.513  0.00  0.00    +0.000 OA
ATOM      2  C1  UNL     1      28.111  -9.841 -36.884  0.00  0.00    +0.000 A 
ATOM      3  C2  UNL     1      28.414  -9.733 -38.254  0.00  0.00    +0.000 A 
ATOM      4  C9  UNL     1      29.748  -9.515 -38.620  0.00  0.00    +0.000 A 
ATOM      5  O3  UNL     1      30.699  -9.425 -37.699  0.00  0.00    +0.000 OA
ATOM      6  C10 UNL     1      30.460  -9.531 -36.395  0.00  0.00    +0.000 A 
ATOM      7  C11 UNL     1      31.630  -9.413 -35.450  0.00  0.00    +0.000 C 
ATOM      8  C12 UNL     1      31.288  -9.527 -33.981  0.00  0.00    +0.000 C 
ATOM      9  C13 UNL     1      30.041  -9.730 -33.547  0.00  0.00    +0.000 C 
ATOM     10  C14 UNL     1      28.913  -9.853 -34.476  0.00  0.00    +0.000 C 
ATOM     11  O5  UNL     1      27.758 -10.052 -34.013  0.00  0.00    +0.000 OA
ATOM     12  C15 UNL     1      29.147  -9.745 -35.933  0.00  0.00    +0.000 A 
ENDROOT
BRANCH   3  13
ATOM     13  C3  UNL     1      27.367  -9.839 -39.302  0.00  0.00    +0.000 A 
ATOM     14  C4  UNL     1      27.235 -11.009 -40.069  0.00  0.00    +0.000 A 
ATOM     15  C5  UNL     1      26.253 -11.100 -41.060  0.00  0.00    +0.000 A 
ATOM     16  C6  UNL     1      25.394 -10.024 -41.300  0.00  0.00    +0.000 A 
ATOM     17  C7  UNL     1      25.523  -8.850 -40.545  0.00  0.00    +0.000 A 
ATOM     18  C8  UNL     1      26.504  -8.757 -39.554  0.00  0.00    +0.000 A 
BRANCH  16  19
ATOM     19  O2  UNL     1      24.420 -10.128 -42.290  0.00  0.00    +0.000 OA
ATOM     20  H3  UNL     1      23.619 -10.740 -42.183  0.00  0.00    +0.000 HD
ENDBRANCH  16  19
ENDBRANCH   3  13
BRANCH   8  21
ATOM     21  O4  UNL     1      32.311  -9.419 -33.042  0.00  0.00    +0.000 OA
ATOM     22  H9  UNL     1      32.298  -8.691 -32.336  0.00  0.00    +0.000 HD
ENDBRANCH   8  21
TORSDOF 3
ENDMDL
