MODEL 1
REMARK VINA RESULT:    -6.280      0.000      0.000
REMARK INTER + INTRA:          -9.688
REMARK INTER:                  -8.667
REMARK INTRA:                  -1.021
REMARK UNBOUND:                -1.021
REMARK  Name = resultss/4CJN/ligands/lig_234_t1.pdb
REMARK  10 active torsions:
REMARK  status: ('A' for Active; 'I' for Inactive)
REMARK    1  A    between atoms: C6_8  and  C7_9
REMARK    2  A    between atoms: C11_13  and  C12_14
REMARK    3  A    between atoms: C14_16  and  O3_17
REMARK    4  A    between atoms: O3_17  and  C15_18
REMARK    5  A    between atoms: C15_18  and  C16_20
REMARK    6  A    between atoms: C16_20  and  C19_23
REMARK    7  A    between atoms: C17_21  and  C18_22
REMARK    8  A    between atoms: C19_23  and  O5_24
REMARK    9  A    between atoms: O5_24  and  C20_25
REMARK   10  A    between atoms: C20_25  and  O6_27
REMARK                            x       y       z     vdW  Elec       q    Type
REMARK                         _______ _______ _______ _____ _____    ______ ____
ROOT
ATOM      1  C1  UNL     1      25.315  -6.527 -35.780  0.00  0.00    +0.000 C 
ATOM      2  C2  UNL     1      25.780  -7.719 -35.404  0.00  0.00    +0.000 C 
ATOM      3  C3  UNL     1      25.140  -8.591 -34.443  0.00  0.00    +0.000 C 
ATOM      4  O1  UNL     1      24.018  -8.392 -33.906  0.00  0.00    +0.000 OA
ATOM      5  O2  UNL     1      25.949  -9.664 -34.136  0.00  0.00    +0.000 OA
ATOM      6  C4  UNL     1      27.083  -9.686 -34.993  0.00  0.00    +0.000 C 
ATOM      7  C5  UNL     1      28.346 -10.107 -34.278  0.00  0.00    +0.000 C 
ATOM      8  C6  UNL     1      29.011  -9.387 -33.344  0.00  0.00    +0.000 C 
ATOM      9  C7  UNL     1      28.388  -8.251 -32.569  0.00  0.00    +0.000 C 
ATOM     10  C8  UNL     1      30.513  -9.591 -33.216  0.00  0.00    +0.000 C 
ATOM     11  C9  UNL     1      31.276  -9.429 -34.559  0.00  0.00    +0.000 C 
ATOM     12  C10 UNL     1      30.594  -8.452 -35.501  0.00  0.00    +0.000 C 
ATOM     13  C11 UNL     1      30.041  -8.793 -36.692  0.00  0.00    +0.000 C 
ATOM     14  C12 UNL     1      30.333 -10.115 -37.362  0.00  0.00    +0.000 C 
ATOM     15  C13 UNL     1      29.075  -7.837 -37.366  0.00  0.00    +0.000 C 
ATOM     16  C14 UNL     1      27.585  -8.233 -37.175  0.00  0.00    +0.000 C 
ATOM     17  C22 UNL     1      27.159  -8.263 -35.667  0.00  0.00    +0.000 C 
ENDROOT
BRANCH  16  18
ATOM     18  O3  UNL     1      27.309  -9.478 -37.821  0.00  0.00    +0.000 OA
BRANCH  18  19
ATOM     19  C15 UNL     1      26.780  -9.592 -39.113  0.00  0.00    +0.000 C 
ATOM     20  O4  UNL     1      25.729  -8.967 -39.423  0.00  0.00    +0.000 OA
BRANCH  19  21
ATOM     21  C16 UNL     1      27.455 -10.455 -40.115  0.00  0.00    +0.000 C 
ATOM     22  C17 UNL     1      28.667 -10.100 -40.587  0.00  0.00    +0.000 C 
ATOM     23  C18 UNL     1      29.458 -10.928 -41.555  0.00  0.00    +0.000 C 
BRANCH  21  24
ATOM     24  C19 UNL     1      26.806 -11.759 -40.520  0.00  0.00    +0.000 C 
BRANCH  24  25
ATOM     25  O5  UNL     1      27.514 -12.840 -39.925  0.00  0.00    +0.000 OA
BRANCH  25  26
ATOM     26  C20 UNL     1      26.934 -14.094 -39.724  0.00  0.00    +0.000 C 
ATOM     27  C21 UNL     1      25.955 -14.495 -40.531  0.00  0.00    +0.000 C 
BRANCH  26  28
ATOM     28  O6  UNL     1      27.380 -14.915 -38.686  0.00  0.00    +0.000 OA
ATOM     29  H27 UNL     1      27.902 -15.766 -38.865  0.00  0.00    +0.000 HD
ENDBRANCH  26  28
ENDBRANCH  25  26
ENDBRANCH  24  25
ENDBRANCH  21  24
ENDBRANCH  19  21
ENDBRANCH  18  19
ENDBRANCH  16  18
TORSDOF 7
ENDMDL
MODEL 2
REMARK VINA RESULT:    -6.129      2.211      7.134
REMARK INTER + INTRA:          -9.480
REMARK INTER:                  -8.282
REMARK INTRA:                  -1.198
REMARK UNBOUND:                -1.021
REMARK  Name = resultss/4CJN/ligands/lig_234_t1.pdb
REMARK  10 active torsions:
REMARK  status: ('A' for Active; 'I' for Inactive)
REMARK    1  A    between atoms: C6_8  and  C7_9
REMARK    2  A    between atoms: C11_13  and  C12_14
REMARK    3  A    between atoms: C14_16  and  O3_17
REMARK    4  A    between atoms: O3_17  and  C15_18
REMARK    5  A    between atoms: C15_18  and  C16_20
REMARK    6  A    between atoms: C16_20  and  C19_23
REMARK    7  A    between atoms: C17_21  and  C18_22
REMARK    8  A    between atoms: C19_23  and  O5_24
REMARK    9  A    between atoms: O5_24  and  C20_25
REMARK   10  A    between atoms: C20_25  and  O6_27
REMARK                            x       y       z     vdW  Elec       q    Type
REMARK                         _______ _______ _______ _____ _____    ______ ____
ROOT
ATOM      1  C1  UNL     1      30.618  -8.065 -40.443  0.00  0.00    +0.000 C 
ATOM      2  C2  UNL     1      29.652  -8.984 -40.489  0.00  0.00    +0.000 C 
ATOM      3  C3  UNL     1      29.775 -10.283 -41.116  0.00  0.00    +0.000 C 
ATOM      4  O1  UNL     1      30.830 -10.758 -41.615  0.00  0.00    +0.000 OA
ATOM      5  O2  UNL     1      28.558 -10.929 -41.153  0.00  0.00    +0.000 OA
ATOM      6  C4  UNL     1      27.594 -10.205 -40.400  0.00  0.00    +0.000 C 
ATOM      7  C5  UNL     1      26.227 -10.215 -41.044  0.00  0.00    +0.000 C 
ATOM      8  C6  UNL     1      25.878  -9.576 -42.185  0.00  0.00    +0.000 C 
ATOM      9  C7  UNL     1      26.878  -9.103 -43.213  0.00  0.00    +0.000 C 
ATOM     10  C8  UNL     1      24.434  -9.127 -42.345  0.00  0.00    +0.000 C 
ATOM     11  C9  UNL     1      23.917  -8.271 -41.157  0.00  0.00    +0.000 C 
ATOM     12  C10 UNL     1      25.023  -7.469 -40.494  0.00  0.00    +0.000 C 
ATOM     13  C11 UNL     1      25.455  -7.663 -39.223  0.00  0.00    +0.000 C 
ATOM     14  C12 UNL     1      24.663  -8.469 -38.221  0.00  0.00    +0.000 C 
ATOM     15  C13 UNL     1      26.787  -7.079 -38.791  0.00  0.00    +0.000 C 
ATOM     16  C14 UNL     1      27.936  -8.125 -38.764  0.00  0.00    +0.000 C 
ATOM     17  C22 UNL     1      28.196  -8.768 -40.170  0.00  0.00    +0.000 C 
ENDROOT
BRANCH  16  18
ATOM     18  O3  UNL     1      27.685  -9.122 -37.772  0.00  0.00    +0.000 OA
BRANCH  18  19
ATOM     19  C15 UNL     1      28.636  -9.560 -36.841  0.00  0.00    +0.000 C 
ATOM     20  O4  UNL     1      29.578 -10.313 -37.207  0.00  0.00    +0.000 OA
BRANCH  19  21
ATOM     21  C16 UNL     1      28.528  -9.140 -35.421  0.00  0.00    +0.000 C 
ATOM     22  C17 UNL     1      29.355  -9.683 -34.504  0.00  0.00    +0.000 C 
ATOM     23  C18 UNL     1      29.369  -9.288 -33.057  0.00  0.00    +0.000 C 
BRANCH  21  24
ATOM     24  C19 UNL     1      27.553  -8.048 -35.047  0.00  0.00    +0.000 C 
BRANCH  24  25
ATOM     25  O5  UNL     1      26.224  -8.516 -35.244  0.00  0.00    +0.000 OA
BRANCH  25  26
ATOM     26  C20 UNL     1      25.557  -9.296 -34.298  0.00  0.00    +0.000 C 
ATOM     27  C21 UNL     1      24.906  -8.698 -33.303  0.00  0.00    +0.000 C 
BRANCH  26  28
ATOM     28  O6  UNL     1      25.575 -10.689 -34.397  0.00  0.00    +0.000 OA
ATOM     29  H27 UNL     1      24.907 -11.193 -34.970  0.00  0.00    +0.000 HD
ENDBRANCH  26  28
ENDBRANCH  25  26
ENDBRANCH  24  25
ENDBRANCH  21  24
ENDBRANCH  19  21
ENDBRANCH  18  19
ENDBRANCH  16  18
TORSDOF 7
ENDMDL
MODEL 3
REMARK VINA RESULT:    -6.020      1.890      2.516
REMARK INTER + INTRA:          -9.329
REMARK INTER:                  -8.171
REMARK INTRA:                  -1.158
REMARK UNBOUND:                -1.021
REMARK  Name = resultss/4CJN/ligands/lig_234_t1.pdb
REMARK  10 active torsions:
REMARK  status: ('A' for Active; 'I' for Inactive)
REMARK    1  A    between atoms: C6_8  and  C7_9
REMARK    2  A    between atoms: C11_13  and  C12_14
REMARK    3  A    between atoms: C14_16  and  O3_17
REMARK    4  A    between atoms: O3_17  and  C15_18
REMARK    5  A    between atoms: C15_18  and  C16_20
REMARK    6  A    between atoms: C16_20  and  C19_23
REMARK    7  A    between atoms: C17_21  and  C18_22
REMARK    8  A    between atoms: C19_23  and  O5_24
REMARK    9  A    between atoms: O5_24  and  C20_25
REMARK   10  A    between atoms: C20_25  and  O6_27
REMARK                            x       y       z     vdW  Elec       q    Type
REMARK                         _______ _______ _______ _____ _____    ______ ____
ROOT
ATOM      1  C1  UNL     1      25.401  -6.281 -36.328  0.00  0.00    +0.000 C 
ATOM      2  C2  UNL     1      25.768  -7.504 -35.943  0.00  0.00    +0.000 C 
ATOM      3  C3  UNL     1      24.986  -8.372 -35.088  0.00  0.00    +0.000 C 
ATOM      4  O1  UNL     1      23.820  -8.134 -34.674  0.00  0.00    +0.000 OA
ATOM      5  O2  UNL     1      25.707  -9.490 -34.729  0.00  0.00    +0.000 OA
ATOM      6  C4  UNL     1      26.929  -9.541 -35.455  0.00  0.00    +0.000 C 
ATOM      7  C5  UNL     1      28.083 -10.042 -34.617  0.00  0.00    +0.000 C 
ATOM      8  C6  UNL     1      28.670  -9.381 -33.592  0.00  0.00    +0.000 C 
ATOM      9  C7  UNL     1      28.014  -8.238 -32.854  0.00  0.00    +0.000 C 
ATOM     10  C8  UNL     1      30.137  -9.659 -33.305  0.00  0.00    +0.000 C 
ATOM     11  C9  UNL     1      31.053  -9.495 -34.548  0.00  0.00    +0.000 C 
ATOM     12  C10 UNL     1      30.525  -8.461 -35.527  0.00  0.00    +0.000 C 
ATOM     13  C11 UNL     1      30.095  -8.743 -36.783  0.00  0.00    +0.000 C 
ATOM     14  C12 UNL     1      30.403 -10.057 -37.460  0.00  0.00    +0.000 C 
ATOM     15  C13 UNL     1      29.255  -7.723 -37.528  0.00  0.00    +0.000 C 
ATOM     16  C14 UNL     1      27.737  -8.054 -37.518  0.00  0.00    +0.000 C 
ATOM     17  C22 UNL     1      27.143  -8.106 -36.068  0.00  0.00    +0.000 C 
ENDROOT
BRANCH  16  18
ATOM     18  O3  UNL     1      27.481  -9.265 -38.231  0.00  0.00    +0.000 OA
BRANCH  18  19
ATOM     19  C15 UNL     1      26.843  -9.323 -39.477  0.00  0.00    +0.000 C 
ATOM     20  O4  UNL     1      25.592  -9.186 -39.553  0.00  0.00    +0.000 OA
BRANCH  19  21
ATOM     21  C16 UNL     1      27.642  -9.553 -40.707  0.00  0.00    +0.000 C 
ATOM     22  C17 UNL     1      28.663 -10.432 -40.681  0.00  0.00    +0.000 C 
ATOM     23  C18 UNL     1      29.494 -10.780 -41.879  0.00  0.00    +0.000 C 
BRANCH  21  24
ATOM     24  C19 UNL     1      27.238  -8.859 -41.988  0.00  0.00    +0.000 C 
BRANCH  24  25
ATOM     25  O5  UNL     1      26.320  -9.682 -42.699  0.00  0.00    +0.000 OA
BRANCH  25  26
ATOM     26  C20 UNL     1      25.032  -9.255 -43.029  0.00  0.00    +0.000 C 
ATOM     27  C21 UNL     1      24.875  -8.111 -43.690  0.00  0.00    +0.000 C 
BRANCH  26  28
ATOM     28  O6  UNL     1      23.924 -10.024 -42.667  0.00  0.00    +0.000 OA
ATOM     29  H27 UNL     1      23.512 -10.700 -43.301  0.00  0.00    +0.000 HD
ENDBRANCH  26  28
ENDBRANCH  25  26
ENDBRANCH  24  25
ENDBRANCH  21  24
ENDBRANCH  19  21
ENDBRANCH  18  19
ENDBRANCH  16  18
TORSDOF 7
ENDMDL
MODEL 4
REMARK VINA RESULT:    -5.880      2.291      6.550
REMARK INTER + INTRA:          -9.135
REMARK INTER:                  -7.854
REMARK INTRA:                  -1.282
REMARK UNBOUND:                -1.021
REMARK  Name = resultss/4CJN/ligands/lig_234_t1.pdb
REMARK  10 active torsions:
REMARK  status: ('A' for Active; 'I' for Inactive)
REMARK    1  A    between atoms: C6_8  and  C7_9
REMARK    2  A    between atoms: C11_13  and  C12_14
REMARK    3  A    between atoms: C14_16  and  O3_17
REMARK    4  A    between atoms: O3_17  and  C15_18
REMARK    5  A    between atoms: C15_18  and  C16_20
REMARK    6  A    between atoms: C16_20  and  C19_23
REMARK    7  A    between atoms: C17_21  and  C18_22
REMARK    8  A    between atoms: C19_23  and  O5_24
REMARK    9  A    between atoms: O5_24  and  C20_25
REMARK   10  A    between atoms: C20_25  and  O6_27
REMARK                            x       y       z     vdW  Elec       q    Type
REMARK                         _______ _______ _______ _____ _____    ______ ____
ROOT
ATOM      1  C1  UNL     1      29.656  -6.807 -37.012  0.00  0.00    +0.000 C 
ATOM      2  C2  UNL     1      29.453  -8.012 -37.546  0.00  0.00    +0.000 C 
ATOM      3  C3  UNL     1      30.273  -9.178 -37.295  0.00  0.00    +0.000 C 
ATOM      4  O1  UNL     1      31.225  -9.240 -36.472  0.00  0.00    +0.000 OA
ATOM      5  O2  UNL     1      29.915 -10.220 -38.124  0.00  0.00    +0.000 OA
ATOM      6  C4  UNL     1      28.731  -9.894 -38.840  0.00  0.00    +0.000 C 
ATOM      7  C5  UNL     1      28.757 -10.395 -40.265  0.00  0.00    +0.000 C 
ATOM      8  C6  UNL     1      29.541  -9.922 -41.262  0.00  0.00    +0.000 C 
ATOM      9  C7  UNL     1      30.797  -9.118 -41.023  0.00  0.00    +0.000 C 
ATOM     10  C8  UNL     1      29.027 -10.024 -42.690  0.00  0.00    +0.000 C 
ATOM     11  C9  UNL     1      27.613  -9.414 -42.884  0.00  0.00    +0.000 C 
ATOM     12  C10 UNL     1      27.337  -8.269 -41.925  0.00  0.00    +0.000 C 
ATOM     13  C11 UNL     1      26.399  -8.296 -40.946  0.00  0.00    +0.000 C 
ATOM     14  C12 UNL     1      25.304  -9.336 -40.914  0.00  0.00    +0.000 C 
ATOM     15  C13 UNL     1      26.458  -7.272 -39.828  0.00  0.00    +0.000 C 
ATOM     16  C14 UNL     1      27.067  -7.833 -38.513  0.00  0.00    +0.000 C 
ATOM     17  C22 UNL     1      28.540  -8.336 -38.699  0.00  0.00    +0.000 C 
ENDROOT
BRANCH  16  18
ATOM     18  O3  UNL     1      26.230  -8.856 -37.969  0.00  0.00    +0.000 OA
BRANCH  18  19
ATOM     19  C15 UNL     1      25.497  -8.721 -36.782  0.00  0.00    +0.000 C 
ATOM     20  O4  UNL     1      24.282  -8.385 -36.826  0.00  0.00    +0.000 OA
BRANCH  19  21
ATOM     21  C16 UNL     1      26.154  -8.968 -35.474  0.00  0.00    +0.000 C 
ATOM     22  C17 UNL     1      27.269  -9.724 -35.424  0.00  0.00    +0.000 C 
ATOM     23  C18 UNL     1      28.041  -9.986 -34.165  0.00  0.00    +0.000 C 
BRANCH  21  24
ATOM     24  C19 UNL     1      25.608  -8.293 -34.237  0.00  0.00    +0.000 C 
BRANCH  24  25
ATOM     25  O5  UNL     1      24.795  -9.214 -33.519  0.00  0.00    +0.000 OA
BRANCH  25  26
ATOM     26  C20 UNL     1      23.502  -8.900 -33.096  0.00  0.00    +0.000 C 
ATOM     27  C21 UNL     1      22.608  -8.486 -33.989  0.00  0.00    +0.000 C 
BRANCH  26  28
ATOM     28  O6  UNL     1      23.156  -9.022 -31.748  0.00  0.00    +0.000 OA
ATOM     29  H27 UNL     1      22.486  -9.713 -31.429  0.00  0.00    +0.000 HD
ENDBRANCH  26  28
ENDBRANCH  25  26
ENDBRANCH  24  25
ENDBRANCH  21  24
ENDBRANCH  19  21
ENDBRANCH  18  19
ENDBRANCH  16  18
TORSDOF 7
ENDMDL
MODEL 5
REMARK VINA RESULT:    -5.714      1.510      2.236
REMARK INTER + INTRA:          -8.907
REMARK INTER:                  -7.750
REMARK INTRA:                  -1.157
REMARK UNBOUND:                -1.021
REMARK  Name = resultss/4CJN/ligands/lig_234_t1.pdb
REMARK  10 active torsions:
REMARK  status: ('A' for Active; 'I' for Inactive)
REMARK    1  A    between atoms: C6_8  and  C7_9
REMARK    2  A    between atoms: C11_13  and  C12_14
REMARK    3  A    between atoms: C14_16  and  O3_17
REMARK    4  A    between atoms: O3_17  and  C15_18
REMARK    5  A    between atoms: C15_18  and  C16_20
REMARK    6  A    between atoms: C16_20  and  C19_23
REMARK    7  A    between atoms: C17_21  and  C18_22
REMARK    8  A    between atoms: C19_23  and  O5_24
REMARK    9  A    between atoms: O5_24  and  C20_25
REMARK   10  A    between atoms: C20_25  and  O6_27
REMARK                            x       y       z     vdW  Elec       q    Type
REMARK                         _______ _______ _______ _____ _____    ______ ____
ROOT
ATOM      1  C1  UNL     1      25.176  -6.203 -34.913  0.00  0.00    +0.000 C 
ATOM      2  C2  UNL     1      25.649  -7.448 -34.847  0.00  0.00    +0.000 C 
ATOM      3  C3  UNL     1      25.104  -8.497 -34.013  0.00  0.00    +0.000 C 
ATOM      4  O1  UNL     1      24.059  -8.408 -33.314  0.00  0.00    +0.000 OA
ATOM      5  O2  UNL     1      25.913  -9.613 -34.032  0.00  0.00    +0.000 OA
ATOM      6  C4  UNL     1      26.935  -9.462 -35.008  0.00  0.00    +0.000 C 
ATOM      7  C5  UNL     1      28.262 -10.025 -34.553  0.00  0.00    +0.000 C 
ATOM      8  C6  UNL     1      29.054  -9.514 -33.582  0.00  0.00    +0.000 C 
ATOM      9  C7  UNL     1      28.560  -8.560 -32.521  0.00  0.00    +0.000 C 
ATOM     10  C8  UNL     1      30.554  -9.745 -33.683  0.00  0.00    +0.000 C 
ATOM     11  C9  UNL     1      31.156  -9.313 -35.048  0.00  0.00    +0.000 C 
ATOM     12  C10 UNL     1      30.394  -8.161 -35.681  0.00  0.00    +0.000 C 
ATOM     13  C11 UNL     1      29.693  -8.249 -36.839  0.00  0.00    +0.000 C 
ATOM     14  C12 UNL     1      29.866  -9.406 -37.794  0.00  0.00    +0.000 C 
ATOM     15  C13 UNL     1      28.682  -7.172 -37.181  0.00  0.00    +0.000 C 
ATOM     16  C14 UNL     1      27.214  -7.594 -36.894  0.00  0.00    +0.000 C 
ATOM     17  C22 UNL     1      26.971  -7.931 -35.382  0.00  0.00    +0.000 C 
ENDROOT
BRANCH  16  18
ATOM     18  O3  UNL     1      26.828  -8.679 -37.740  0.00  0.00    +0.000 OA
BRANCH  18  19
ATOM     19  C15 UNL     1      25.619  -8.731 -38.446  0.00  0.00    +0.000 C 
ATOM     20  O4  UNL     1      24.523  -8.735 -37.823  0.00  0.00    +0.000 OA
BRANCH  19  21
ATOM     21  C16 UNL     1      25.631  -8.790 -39.930  0.00  0.00    +0.000 C 
ATOM     22  C17 UNL     1      24.464  -8.880 -40.599  0.00  0.00    +0.000 C 
ATOM     23  C18 UNL     1      24.361  -8.887 -42.096  0.00  0.00    +0.000 C 
BRANCH  21  24
ATOM     24  C19 UNL     1      26.947  -8.658 -40.662  0.00  0.00    +0.000 C 
BRANCH  24  25
ATOM     25  O5  UNL     1      27.255  -9.891 -41.300  0.00  0.00    +0.000 OA
BRANCH  25  26
ATOM     26  C20 UNL     1      28.166 -10.804 -40.766  0.00  0.00    +0.000 C 
ATOM     27  C21 UNL     1      29.370 -10.922 -41.321  0.00  0.00    +0.000 C 
BRANCH  26  28
ATOM     28  O6  UNL     1      27.814 -11.583 -39.662  0.00  0.00    +0.000 OA
ATOM     29  H27 UNL     1      26.866 -11.602 -39.302  0.00  0.00    +0.000 HD
ENDBRANCH  26  28
ENDBRANCH  25  26
ENDBRANCH  24  25
ENDBRANCH  21  24
ENDBRANCH  19  21
ENDBRANCH  18  19
ENDBRANCH  16  18
TORSDOF 7
ENDMDL
MODEL 6
REMARK VINA RESULT:    -5.554      2.555      6.308
REMARK INTER + INTRA:          -8.686
REMARK INTER:                  -7.350
REMARK INTRA:                  -1.336
REMARK UNBOUND:                -1.021
REMARK  Name = resultss/4CJN/ligands/lig_234_t1.pdb
REMARK  10 active torsions:
REMARK  status: ('A' for Active; 'I' for Inactive)
REMARK    1  A    between atoms: C6_8  and  C7_9
REMARK    2  A    between atoms: C11_13  and  C12_14
REMARK    3  A    between atoms: C14_16  and  O3_17
REMARK    4  A    between atoms: O3_17  and  C15_18
REMARK    5  A    between atoms: C15_18  and  C16_20
REMARK    6  A    between atoms: C16_20  and  C19_23
REMARK    7  A    between atoms: C17_21  and  C18_22
REMARK    8  A    between atoms: C19_23  and  O5_24
REMARK    9  A    between atoms: O5_24  and  C20_25
REMARK   10  A    between atoms: C20_25  and  O6_27
REMARK                            x       y       z     vdW  Elec       q    Type
REMARK                         _______ _______ _______ _____ _____    ______ ____
ROOT
ATOM      1  C1  UNL     1      24.624  -8.479 -38.008  0.00  0.00    +0.000 C 
ATOM      2  C2  UNL     1      25.479  -7.911 -38.860  0.00  0.00    +0.000 C 
ATOM      3  C3  UNL     1      25.163  -6.803 -39.736  0.00  0.00    +0.000 C 
ATOM      4  O1  UNL     1      24.077  -6.164 -39.744  0.00  0.00    +0.000 OA
ATOM      5  O2  UNL     1      26.194  -6.560 -40.617  0.00  0.00    +0.000 OA
ATOM      6  C4  UNL     1      27.327  -7.349 -40.276  0.00  0.00    +0.000 C 
ATOM      7  C5  UNL     1      28.056  -7.877 -41.490  0.00  0.00    +0.000 C 
ATOM      8  C6  UNL     1      27.600  -8.823 -42.344  0.00  0.00    +0.000 C 
ATOM      9  C7  UNL     1      26.143  -9.200 -42.469  0.00  0.00    +0.000 C 
ATOM     10  C8  UNL     1      28.620  -9.693 -43.062  0.00  0.00    +0.000 C 
ATOM     11  C9  UNL     1      29.630 -10.381 -42.103  0.00  0.00    +0.000 C 
ATOM     12  C10 UNL     1      29.034 -10.663 -40.735  0.00  0.00    +0.000 C 
ATOM     13  C11 UNL     1      29.447 -10.079 -39.583  0.00  0.00    +0.000 C 
ATOM     14  C12 UNL     1      30.759  -9.338 -39.486  0.00  0.00    +0.000 C 
ATOM     15  C13 UNL     1      28.559 -10.143 -38.354  0.00  0.00    +0.000 C 
ATOM     16  C14 UNL     1      27.768  -8.830 -38.100  0.00  0.00    +0.000 C 
ATOM     17  C22 UNL     1      26.813  -8.464 -39.289  0.00  0.00    +0.000 C 
ENDROOT
BRANCH  16  18
ATOM     18  O3  UNL     1      28.660  -7.756 -37.796  0.00  0.00    +0.000 OA
BRANCH  18  19
ATOM     19  C15 UNL     1      28.764  -7.155 -36.535  0.00  0.00    +0.000 C 
ATOM     20  O4  UNL     1      29.083  -5.939 -36.439  0.00  0.00    +0.000 OA
BRANCH  19  21
ATOM     21  C16 UNL     1      28.506  -7.955 -35.311  0.00  0.00    +0.000 C 
ATOM     22  C17 UNL     1      29.391  -8.900 -34.937  0.00  0.00    +0.000 C 
ATOM     23  C18 UNL     1      29.255  -9.722 -33.690  0.00  0.00    +0.000 C 
BRANCH  21  24
ATOM     24  C19 UNL     1      27.298  -7.631 -34.461  0.00  0.00    +0.000 C 
BRANCH  24  25
ATOM     25  O5  UNL     1      26.169  -8.336 -34.961  0.00  0.00    +0.000 OA
BRANCH  25  26
ATOM     26  C20 UNL     1      25.477  -9.281 -34.200  0.00  0.00    +0.000 C 
ATOM     27  C21 UNL     1      24.628  -8.866 -33.263  0.00  0.00    +0.000 C 
BRANCH  26  28
ATOM     28  O6  UNL     1      25.679 -10.645 -34.421  0.00  0.00    +0.000 OA
ATOM     29  H27 UNL     1      24.979 -11.336 -34.173  0.00  0.00    +0.000 HD
ENDBRANCH  26  28
ENDBRANCH  25  26
ENDBRANCH  24  25
ENDBRANCH  21  24
ENDBRANCH  19  21
ENDBRANCH  18  19
ENDBRANCH  16  18
TORSDOF 7
ENDMDL
MODEL 7
REMARK VINA RESULT:    -5.536      4.950      7.769
REMARK INTER + INTRA:          -8.661
REMARK INTER:                  -7.437
REMARK INTRA:                  -1.224
REMARK UNBOUND:                -1.021
REMARK  Name = resultss/4CJN/ligands/lig_234_t1.pdb
REMARK  10 active torsions:
REMARK  status: ('A' for Active; 'I' for Inactive)
REMARK    1  A    between atoms: C6_8  and  C7_9
REMARK    2  A    between atoms: C11_13  and  C12_14
REMARK    3  A    between atoms: C14_16  and  O3_17
REMARK    4  A    between atoms: O3_17  and  C15_18
REMARK    5  A    between atoms: C15_18  and  C16_20
REMARK    6  A    between atoms: C16_20  and  C19_23
REMARK    7  A    between atoms: C17_21  and  C18_22
REMARK    8  A    between atoms: C19_23  and  O5_24
REMARK    9  A    between atoms: O5_24  and  C20_25
REMARK   10  A    between atoms: C20_25  and  O6_27
REMARK                            x       y       z     vdW  Elec       q    Type
REMARK                         _______ _______ _______ _____ _____    ______ ____
ROOT
ATOM      1  C1  UNL     1      29.707 -10.880 -42.701  0.00  0.00    +0.000 C 
ATOM      2  C2  UNL     1      29.386  -9.771 -42.034  0.00  0.00    +0.000 C 
ATOM      3  C3  UNL     1      30.315  -8.966 -41.271  0.00  0.00    +0.000 C 
ATOM      4  O1  UNL     1      31.561  -9.144 -41.212  0.00  0.00    +0.000 OA
ATOM      5  O2  UNL     1      29.653  -7.991 -40.557  0.00  0.00    +0.000 OA
ATOM      6  C4  UNL     1      28.281  -7.955 -40.930  0.00  0.00    +0.000 C 
ATOM      7  C5  UNL     1      27.365  -7.702 -39.755  0.00  0.00    +0.000 C 
ATOM      8  C6  UNL     1      27.111  -8.563 -38.742  0.00  0.00    +0.000 C 
ATOM      9  C7  UNL     1      28.005  -9.731 -38.399  0.00  0.00    +0.000 C 
ATOM     10  C8  UNL     1      25.760  -8.479 -38.050  0.00  0.00    +0.000 C 
ATOM     11  C9  UNL     1      24.557  -8.547 -39.029  0.00  0.00    +0.000 C 
ATOM     12  C10 UNL     1      24.864  -9.366 -40.271  0.00  0.00    +0.000 C 
ATOM     13  C11 UNL     1      24.927  -8.860 -41.528  0.00  0.00    +0.000 C 
ATOM     14  C12 UNL     1      24.375  -7.497 -41.872  0.00  0.00    +0.000 C 
ATOM     15  C13 UNL     1      25.596  -9.668 -42.624  0.00  0.00    +0.000 C 
ATOM     16  C14 UNL     1      27.040  -9.193 -42.943  0.00  0.00    +0.000 C 
ATOM     17  C22 UNL     1      27.995  -9.298 -41.703  0.00  0.00    +0.000 C 
ENDROOT
BRANCH  16  18
ATOM     18  O3  UNL     1      27.027  -7.870 -43.481  0.00  0.00    +0.000 OA
BRANCH  18  19
ATOM     19  C15 UNL     1      27.636  -7.508 -44.690  0.00  0.00    +0.000 C 
ATOM     20  O4  UNL     1      28.883  -7.636 -44.832  0.00  0.00    +0.000 OA
BRANCH  19  21
ATOM     21  C16 UNL     1      26.813  -6.967 -45.801  0.00  0.00    +0.000 C 
ATOM     22  C17 UNL     1      27.305  -6.976 -47.056  0.00  0.00    +0.000 C 
ATOM     23  C18 UNL     1      26.535  -6.509 -48.255  0.00  0.00    +0.000 C 
BRANCH  21  24
ATOM     24  C19 UNL     1      25.406  -6.497 -45.513  0.00  0.00    +0.000 C 
BRANCH  24  25
ATOM     25  O5  UNL     1      24.504  -7.584 -45.680  0.00  0.00    +0.000 OA
BRANCH  25  26
ATOM     26  C20 UNL     1      23.435  -7.540 -46.578  0.00  0.00    +0.000 C 
ATOM     27  C21 UNL     1      22.391  -6.760 -46.309  0.00  0.00    +0.000 C 
BRANCH  26  28
ATOM     28  O6  UNL     1      23.465  -8.309 -47.744  0.00  0.00    +0.000 OA
ATOM     29  H27 UNL     1      24.236  -8.935 -47.951  0.00  0.00    +0.000 HD
ENDBRANCH  26  28
ENDBRANCH  25  26
ENDBRANCH  24  25
ENDBRANCH  21  24
ENDBRANCH  19  21
ENDBRANCH  18  19
ENDBRANCH  16  18
TORSDOF 7
ENDMDL
MODEL 8
REMARK VINA RESULT:    -5.484      2.310      7.394
REMARK INTER + INTRA:          -8.590
REMARK INTER:                  -7.297
REMARK INTRA:                  -1.293
REMARK UNBOUND:                -1.021
REMARK  Name = resultss/4CJN/ligands/lig_234_t1.pdb
REMARK  10 active torsions:
REMARK  status: ('A' for Active; 'I' for Inactive)
REMARK    1  A    between atoms: C6_8  and  C7_9
REMARK    2  A    between atoms: C11_13  and  C12_14
REMARK    3  A    between atoms: C14_16  and  O3_17
REMARK    4  A    between atoms: O3_17  and  C15_18
REMARK    5  A    between atoms: C15_18  and  C16_20
REMARK    6  A    between atoms: C16_20  and  C19_23
REMARK    7  A    between atoms: C17_21  and  C18_22
REMARK    8  A    between atoms: C19_23  and  O5_24
REMARK    9  A    between atoms: O5_24  and  C20_25
REMARK   10  A    between atoms: C20_25  and  O6_27
REMARK                            x       y       z     vdW  Elec       q    Type
REMARK                         _______ _______ _______ _____ _____    ______ ____
ROOT
ATOM      1  C1  UNL     1      30.553  -8.743 -40.351  0.00  0.00    +0.000 C 
ATOM      2  C2  UNL     1      29.446  -9.484 -40.415  0.00  0.00    +0.000 C 
ATOM      3  C3  UNL     1      29.326 -10.733 -41.136  0.00  0.00    +0.000 C 
ATOM      4  O1  UNL     1      30.268 -11.337 -41.716  0.00  0.00    +0.000 OA
ATOM      5  O2  UNL     1      28.018 -11.166 -41.159  0.00  0.00    +0.000 OA
ATOM      6  C4  UNL     1      27.216 -10.353 -40.313  0.00  0.00    +0.000 C 
ATOM      7  C5  UNL     1      25.844 -10.087 -40.889  0.00  0.00    +0.000 C 
ATOM      8  C6  UNL     1      25.568  -9.314 -41.965  0.00  0.00    +0.000 C 
ATOM      9  C7  UNL     1      26.596  -8.935 -43.004  0.00  0.00    +0.000 C 
ATOM     10  C8  UNL     1      24.215  -8.622 -42.024  0.00  0.00    +0.000 C 
ATOM     11  C9  UNL     1      23.892  -7.786 -40.756  0.00  0.00    +0.000 C 
ATOM     12  C10 UNL     1      25.140  -7.230 -40.092  0.00  0.00    +0.000 C 
ATOM     13  C11 UNL     1      25.578  -7.590 -38.860  0.00  0.00    +0.000 C 
ATOM     14  C12 UNL     1      24.698  -8.328 -37.880  0.00  0.00    +0.000 C 
ATOM     15  C13 UNL     1      27.004  -7.268 -38.453  0.00  0.00    +0.000 C 
ATOM     16  C14 UNL     1      27.961  -8.489 -38.554  0.00  0.00    +0.000 C 
ATOM     17  C22 UNL     1      28.059  -9.056 -40.012  0.00  0.00    +0.000 C 
ENDROOT
BRANCH  16  18
ATOM     18  O3  UNL     1      27.581  -9.504 -37.623  0.00  0.00    +0.000 OA
BRANCH  18  19
ATOM     19  C15 UNL     1      28.045  -9.571 -36.302  0.00  0.00    +0.000 C 
ATOM     20  O4  UNL     1      29.186 -10.050 -36.058  0.00  0.00    +0.000 OA
BRANCH  19  21
ATOM     21  C16 UNL     1      27.189  -9.085 -35.191  0.00  0.00    +0.000 C 
ATOM     22  C17 UNL     1      26.063  -9.757 -34.878  0.00  0.00    +0.000 C 
ATOM     23  C18 UNL     1      25.160  -9.386 -33.740  0.00  0.00    +0.000 C 
BRANCH  21  24
ATOM     24  C19 UNL     1      27.644  -7.896 -34.376  0.00  0.00    +0.000 C 
BRANCH  24  25
ATOM     25  O5  UNL     1      28.093  -8.343 -33.103  0.00  0.00    +0.000 OA
BRANCH  25  26
ATOM     26  C20 UNL     1      29.402  -8.773 -32.878  0.00  0.00    +0.000 C 
ATOM     27  C21 UNL     1      30.310  -7.900 -32.449  0.00  0.00    +0.000 C 
BRANCH  26  28
ATOM     28  O6  UNL     1      29.751 -10.106 -33.104  0.00  0.00    +0.000 OA
ATOM     29  H27 UNL     1      30.673 -10.369 -33.435  0.00  0.00    +0.000 HD
ENDBRANCH  26  28
ENDBRANCH  25  26
ENDBRANCH  24  25
ENDBRANCH  21  24
ENDBRANCH  19  21
ENDBRANCH  18  19
ENDBRANCH  16  18
TORSDOF 7
ENDMDL
MODEL 9
REMARK VINA RESULT:    -5.356      2.626      4.540
REMARK INTER + INTRA:          -8.413
REMARK INTER:                  -6.619
REMARK INTRA:                  -1.794
REMARK UNBOUND:                -1.021
REMARK  Name = resultss/4CJN/ligands/lig_234_t1.pdb
REMARK  10 active torsions:
REMARK  status: ('A' for Active; 'I' for Inactive)
REMARK    1  A    between atoms: C6_8  and  C7_9
REMARK    2  A    between atoms: C11_13  and  C12_14
REMARK    3  A    between atoms: C14_16  and  O3_17
REMARK    4  A    between atoms: O3_17  and  C15_18
REMARK    5  A    between atoms: C15_18  and  C16_20
REMARK    6  A    between atoms: C16_20  and  C19_23
REMARK    7  A    between atoms: C17_21  and  C18_22
REMARK    8  A    between atoms: C19_23  and  O5_24
REMARK    9  A    between atoms: O5_24  and  C20_25
REMARK   10  A    between atoms: C20_25  and  O6_27
REMARK                            x       y       z     vdW  Elec       q    Type
REMARK                         _______ _______ _______ _____ _____    ______ ____
ROOT
ATOM      1  C1  UNL     1      27.795 -10.889 -39.051  0.00  0.00    +0.000 C 
ATOM      2  C2  UNL     1      28.142  -9.850 -38.289  0.00  0.00    +0.000 C 
ATOM      3  C3  UNL     1      29.501  -9.488 -37.950  0.00  0.00    +0.000 C 
ATOM      4  O1  UNL     1      30.540 -10.041 -38.402  0.00  0.00    +0.000 OA
ATOM      5  O2  UNL     1      29.524  -8.480 -37.011  0.00  0.00    +0.000 OA
ATOM      6  C4  UNL     1      28.212  -7.976 -36.799  0.00  0.00    +0.000 C 
ATOM      7  C5  UNL     1      27.944  -7.641 -35.350  0.00  0.00    +0.000 C 
ATOM      8  C6  UNL     1      27.812  -8.529 -34.337  0.00  0.00    +0.000 C 
ATOM      9  C7  UNL     1      28.319  -9.950 -34.406  0.00  0.00    +0.000 C 
ATOM     10  C8  UNL     1      26.932  -8.148 -33.158  0.00  0.00    +0.000 C 
ATOM     11  C9  UNL     1      25.503  -7.700 -33.571  0.00  0.00    +0.000 C 
ATOM     12  C10 UNL     1      25.028  -8.374 -34.846  0.00  0.00    +0.000 C 
ATOM     13  C11 UNL     1      24.785  -7.725 -36.012  0.00  0.00    +0.000 C 
ATOM     14  C12 UNL     1      24.639  -6.223 -36.079  0.00  0.00    +0.000 C 
ATOM     15  C13 UNL     1      24.681  -8.520 -37.300  0.00  0.00    +0.000 C 
ATOM     16  C14 UNL     1      25.971  -8.460 -38.165  0.00  0.00    +0.000 C 
ATOM     17  C22 UNL     1      27.223  -9.035 -37.417  0.00  0.00    +0.000 C 
ENDROOT
BRANCH  16  18
ATOM     18  O3  UNL     1      26.204  -7.128 -38.627  0.00  0.00    +0.000 OA
BRANCH  18  19
ATOM     19  C15 UNL     1      26.216  -6.757 -39.978  0.00  0.00    +0.000 C 
ATOM     20  O4  UNL     1      25.260  -6.087 -40.456  0.00  0.00    +0.000 OA
BRANCH  19  21
ATOM     21  C16 UNL     1      27.350  -7.159 -40.846  0.00  0.00    +0.000 C 
ATOM     22  C17 UNL     1      28.614  -6.951 -40.425  0.00  0.00    +0.000 C 
ATOM     23  C18 UNL     1      29.829  -7.372 -41.197  0.00  0.00    +0.000 C 
BRANCH  21  24
ATOM     24  C19 UNL     1      27.065  -7.874 -42.147  0.00  0.00    +0.000 C 
BRANCH  24  25
ATOM     25  O5  UNL     1      26.701  -9.221 -41.874  0.00  0.00    +0.000 OA
BRANCH  25  26
ATOM     26  C20 UNL     1      25.400  -9.696 -42.050  0.00  0.00    +0.000 C 
ATOM     27  C21 UNL     1      24.580  -9.056 -42.879  0.00  0.00    +0.000 C 
BRANCH  26  28
ATOM     28  O6  UNL     1      24.968 -10.832 -41.360  0.00  0.00    +0.000 OA
ATOM     29  H27 UNL     1      25.065 -11.763 -41.750  0.00  0.00    +0.000 HD
ENDBRANCH  26  28
ENDBRANCH  25  26
ENDBRANCH  24  25
ENDBRANCH  21  24
ENDBRANCH  19  21
ENDBRANCH  18  19
ENDBRANCH  16  18
TORSDOF 7
ENDMDL
