MODEL 1
REMARK VINA RESULT:    -6.367      0.000      0.000
REMARK INTER + INTRA:         -12.208
REMARK INTER:                 -10.833
REMARK INTRA:                  -1.375
REMARK UNBOUND:                -1.375
REMARK  Name = resultss/4CJN/ligands/lig_151_t0.pdb
REMARK  15 active torsions:
REMARK  status: ('A' for Active; 'I' for Inactive)
REMARK    1  A    between atoms: C1_1  and  C2_2
REMARK    2  A    between atoms: C2_2  and  O1_3
REMARK    3  A    between atoms: C2_2  and  C14_20
REMARK    4  A    between atoms: O1_3  and  C3_4
REMARK    5  A    between atoms: C3_4  and  C4_5
REMARK    6  A    between atoms: C4_5  and  C5_6
REMARK    7  A    between atoms: C5_6  and  C6_7
REMARK    8  A    between atoms: C6_7  and  C7_8
REMARK    9  A    between atoms: C7_8  and  N1_9
REMARK   10  A    between atoms: C9_11  and  O2_12
REMARK   11  A    between atoms: C10_13  and  O3_14
REMARK   12  A    between atoms: C11_15  and  O4_16
REMARK   13  A    between atoms: C12_17  and  C13_18
REMARK   14  A    between atoms: C13_18  and  O5_19
REMARK   15  A    between atoms: C17_23  and  C18_24
REMARK                            x       y       z     vdW  Elec       q    Type
REMARK                         _______ _______ _______ _____ _____    ______ ____
ROOT
ATOM      1  C5  UNL     1      26.755  -7.184 -39.327  0.00  0.00    +0.000 C 
ENDROOT
BRANCH   1   2
ATOM      2  C4  UNL     1      27.670  -8.254 -39.946  0.00  0.00    +0.000 C 
BRANCH   2   3
ATOM      3  C3  UNL     1      28.277  -9.229 -38.922  0.00  0.00    +0.000 C 
BRANCH   3   4
ATOM      4  O1  UNL     1      29.189 -10.124 -39.530  0.00  0.00    +0.000 OA
BRANCH   4   6
ATOM      5  C1  UNL     1      31.401  -9.680 -38.753  0.00  0.00    +0.000 C 
ATOM      6  C2  UNL     1      30.400  -9.481 -39.888  0.00  0.00    +0.000 C 
BRANCH   6   7
ATOM      7  C14 UNL     1      30.966 -10.075 -41.161  0.00  0.00    +0.000 A 
ATOM      8  C15 UNL     1      30.134 -10.746 -42.075  0.00  0.00    +0.000 A 
ATOM      9  C16 UNL     1      30.673 -11.355 -43.212  0.00  0.00    +0.000 A 
ATOM     10  C17 UNL     1      32.059 -11.317 -43.450  0.00  0.00    +0.000 A 
ATOM     11  C24 UNL     1      32.893 -10.657 -42.531  0.00  0.00    +0.000 A 
ATOM     12  C25 UNL     1      32.351 -10.038 -41.399  0.00  0.00    +0.000 A 
BRANCH  10  13
ATOM     13  C18 UNL     1      32.634 -12.003 -44.633  0.00  0.00    +0.000 A 
ATOM     14  C19 UNL     1      32.387 -13.371 -44.858  0.00  0.00    +0.000 A 
ATOM     15  C20 UNL     1      32.960 -14.018 -45.957  0.00  0.00    +0.000 A 
ATOM     16  C21 UNL     1      33.786 -13.313 -46.836  0.00  0.00    +0.000 A 
ATOM     17  C22 UNL     1      34.034 -11.955 -46.625  0.00  0.00    +0.000 A 
ATOM     18  C23 UNL     1      33.456 -11.299 -45.535  0.00  0.00    +0.000 A 
ENDBRANCH  10  13
ENDBRANCH   6   7
ENDBRANCH   4   6
ENDBRANCH   3   4
ENDBRANCH   2   3
ENDBRANCH   1   2
BRANCH   1  19
ATOM     19  C6  UNL     1      25.858  -7.733 -38.205  0.00  0.00    +0.000 C 
BRANCH  19  20
ATOM     20  C7  UNL     1      25.711  -6.722 -37.054  0.00  0.00    +0.000 C 
BRANCH  20  21
ATOM     21  N1  UNL     1      25.441  -7.395 -35.764  0.00  0.00    +0.000 NA
ATOM     22  C8  UNL     1      25.706  -8.845 -35.814  0.00  0.00    +0.000 C 
ATOM     23  C9  UNL     1      25.925  -9.398 -34.383  0.00  0.00    +0.000 C 
ATOM     24  C10 UNL     1      25.187  -8.549 -33.313  0.00  0.00    +0.000 C 
ATOM     25  C11 UNL     1      23.864  -8.009 -33.878  0.00  0.00    +0.000 C 
ATOM     26  C12 UNL     1      24.137  -7.068 -35.102  0.00  0.00    +0.000 C 
BRANCH  23  27
ATOM     27  O2  UNL     1      25.467 -10.728 -34.321  0.00  0.00    +0.000 OA
ATOM     28  H18 UNL     1      25.969 -11.165 -33.583  0.00  0.00    +0.000 HD
ENDBRANCH  23  27
BRANCH  24  29
ATOM     29  O3  UNL     1      25.995  -7.468 -32.913  0.00  0.00    +0.000 OA
ATOM     30  H20 UNL     1      26.379  -7.697 -32.025  0.00  0.00    +0.000 HD
ENDBRANCH  24  29
BRANCH  25  31
ATOM     31  O4  UNL     1      23.060  -9.103 -34.258  0.00  0.00    +0.000 OA
ATOM     32  H22 UNL     1      23.648  -9.773 -34.699  0.00  0.00    +0.000 HD
ENDBRANCH  25  31
BRANCH  26  33
ATOM     33  C13 UNL     1      22.929  -7.034 -36.072  0.00  0.00    +0.000 C 
BRANCH  33  34
ATOM     34  O5  UNL     1      21.729  -6.980 -35.346  0.00  0.00    +0.000 OA
ATOM     35  H26 UNL     1      21.900  -6.406 -34.551  0.00  0.00    +0.000 HD
ENDBRANCH  33  34
ENDBRANCH  26  33
ENDBRANCH  20  21
ENDBRANCH  19  20
ENDBRANCH   1  19
TORSDOF 14
ENDMDL
MODEL 2
REMARK VINA RESULT:    -6.326      3.918      6.057
REMARK INTER + INTRA:         -12.140
REMARK INTER:                  -9.446
REMARK INTRA:                  -2.694
REMARK UNBOUND:                -1.375
REMARK  Name = resultss/4CJN/ligands/lig_151_t0.pdb
REMARK  15 active torsions:
REMARK  status: ('A' for Active; 'I' for Inactive)
REMARK    1  A    between atoms: C1_1  and  C2_2
REMARK    2  A    between atoms: C2_2  and  O1_3
REMARK    3  A    between atoms: C2_2  and  C14_20
REMARK    4  A    between atoms: O1_3  and  C3_4
REMARK    5  A    between atoms: C3_4  and  C4_5
REMARK    6  A    between atoms: C4_5  and  C5_6
REMARK    7  A    between atoms: C5_6  and  C6_7
REMARK    8  A    between atoms: C6_7  and  C7_8
REMARK    9  A    between atoms: C7_8  and  N1_9
REMARK   10  A    between atoms: C9_11  and  O2_12
REMARK   11  A    between atoms: C10_13  and  O3_14
REMARK   12  A    between atoms: C11_15  and  O4_16
REMARK   13  A    between atoms: C12_17  and  C13_18
REMARK   14  A    between atoms: C13_18  and  O5_19
REMARK   15  A    between atoms: C17_23  and  C18_24
REMARK                            x       y       z     vdW  Elec       q    Type
REMARK                         _______ _______ _______ _____ _____    ______ ____
ROOT
ATOM      1  C5  UNL     1      25.014  -7.430 -39.354  0.00  0.00    +0.000 C 
ENDROOT
BRANCH   1   2
ATOM      2  C4  UNL     1      24.658  -8.781 -39.998  0.00  0.00    +0.000 C 
BRANCH   2   3
ATOM      3  C3  UNL     1      25.470  -9.106 -41.264  0.00  0.00    +0.000 C 
BRANCH   3   4
ATOM      4  O1  UNL     1      26.219 -10.296 -41.112  0.00  0.00    +0.000 OA
BRANCH   4   6
ATOM      5  C1  UNL     1      27.850  -8.774 -41.962  0.00  0.00    +0.000 C 
ATOM      6  C2  UNL     1      27.614 -10.051 -41.159  0.00  0.00    +0.000 C 
BRANCH   6   7
ATOM      7  C14 UNL     1      28.173  -9.872 -39.763  0.00  0.00    +0.000 A 
ATOM      8  C15 UNL     1      29.228  -8.974 -39.518  0.00  0.00    +0.000 A 
ATOM      9  C16 UNL     1      29.788  -8.867 -38.241  0.00  0.00    +0.000 A 
ATOM     10  C17 UNL     1      29.314  -9.669 -37.187  0.00  0.00    +0.000 A 
ATOM     11  C24 UNL     1      28.268 -10.576 -37.433  0.00  0.00    +0.000 A 
ATOM     12  C25 UNL     1      27.700 -10.673 -38.708  0.00  0.00    +0.000 A 
BRANCH  10  13
ATOM     13  C18 UNL     1      29.940  -9.586 -35.844  0.00  0.00    +0.000 A 
ATOM     14  C19 UNL     1      31.330  -9.401 -35.713  0.00  0.00    +0.000 A 
ATOM     15  C20 UNL     1      31.917  -9.359 -34.445  0.00  0.00    +0.000 A 
ATOM     16  C21 UNL     1      31.130  -9.506 -33.300  0.00  0.00    +0.000 A 
ATOM     17  C22 UNL     1      29.750  -9.685 -33.419  0.00  0.00    +0.000 A 
ATOM     18  C23 UNL     1      29.154  -9.718 -34.682  0.00  0.00    +0.000 A 
ENDBRANCH  10  13
ENDBRANCH   6   7
ENDBRANCH   4   6
ENDBRANCH   3   4
ENDBRANCH   2   3
ENDBRANCH   1   2
BRANCH   1  19
ATOM     19  C6  UNL     1      25.846  -7.575 -38.068  0.00  0.00    +0.000 C 
BRANCH  19  20
ATOM     20  C7  UNL     1      25.347  -6.628 -36.963  0.00  0.00    +0.000 C 
BRANCH  20  21
ATOM     21  N1  UNL     1      25.146  -7.338 -35.681  0.00  0.00    +0.000 NA
ATOM     22  C8  UNL     1      25.473  -8.773 -35.770  0.00  0.00    +0.000 C 
ATOM     23  C9  UNL     1      25.759  -9.345 -34.359  0.00  0.00    +0.000 C 
ATOM     24  C10 UNL     1      25.018  -8.551 -33.249  0.00  0.00    +0.000 C 
ATOM     25  C11 UNL     1      23.655  -8.059 -33.763  0.00  0.00    +0.000 C 
ATOM     26  C12 UNL     1      23.850  -7.082 -34.974  0.00  0.00    +0.000 C 
BRANCH  23  27
ATOM     27  O2  UNL     1      25.362 -10.695 -34.311  0.00  0.00    +0.000 OA
ATOM     28  H18 UNL     1      26.187 -11.236 -34.427  0.00  0.00    +0.000 HD
ENDBRANCH  23  27
BRANCH  24  29
ATOM     29  O3  UNL     1      25.789  -7.444 -32.850  0.00  0.00    +0.000 OA
ATOM     30  H20 UNL     1      25.931  -6.876 -33.654  0.00  0.00    +0.000 HD
ENDBRANCH  24  29
BRANCH  25  31
ATOM     31  O4  UNL     1      22.890  -9.180 -34.142  0.00  0.00    +0.000 OA
ATOM     32  H22 UNL     1      23.460  -9.759 -34.714  0.00  0.00    +0.000 HD
ENDBRANCH  25  31
BRANCH  26  33
ATOM     33  C13 UNL     1      22.612  -7.083 -35.907  0.00  0.00    +0.000 C 
BRANCH  33  34
ATOM     34  O5  UNL     1      21.446  -6.848 -35.161  0.00  0.00    +0.000 OA
ATOM     35  H26 UNL     1      21.123  -5.940 -35.411  0.00  0.00    +0.000 HD
ENDBRANCH  33  34
ENDBRANCH  26  33
ENDBRANCH  20  21
ENDBRANCH  19  20
ENDBRANCH   1  19
TORSDOF 14
ENDMDL
MODEL 3
REMARK VINA RESULT:    -6.247      3.617      5.318
REMARK INTER + INTRA:         -12.005
REMARK INTER:                 -10.332
REMARK INTRA:                  -1.673
REMARK UNBOUND:                -1.375
REMARK  Name = resultss/4CJN/ligands/lig_151_t0.pdb
REMARK  15 active torsions:
REMARK  status: ('A' for Active; 'I' for Inactive)
REMARK    1  A    between atoms: C1_1  and  C2_2
REMARK    2  A    between atoms: C2_2  and  O1_3
REMARK    3  A    between atoms: C2_2  and  C14_20
REMARK    4  A    between atoms: O1_3  and  C3_4
REMARK    5  A    between atoms: C3_4  and  C4_5
REMARK    6  A    between atoms: C4_5  and  C5_6
REMARK    7  A    between atoms: C5_6  and  C6_7
REMARK    8  A    between atoms: C6_7  and  C7_8
REMARK    9  A    between atoms: C7_8  and  N1_9
REMARK   10  A    between atoms: C9_11  and  O2_12
REMARK   11  A    between atoms: C10_13  and  O3_14
REMARK   12  A    between atoms: C11_15  and  O4_16
REMARK   13  A    between atoms: C12_17  and  C13_18
REMARK   14  A    between atoms: C13_18  and  O5_19
REMARK   15  A    between atoms: C17_23  and  C18_24
REMARK                            x       y       z     vdW  Elec       q    Type
REMARK                         _______ _______ _______ _____ _____    ______ ____
ROOT
ATOM      1  C5  UNL     1      26.976  -6.979 -38.763  0.00  0.00    +0.000 C 
ENDROOT
BRANCH   1   2
ATOM      2  C4  UNL     1      28.081  -7.870 -39.355  0.00  0.00    +0.000 C 
BRANCH   2   3
ATOM      3  C3  UNL     1      28.143  -9.281 -38.745  0.00  0.00    +0.000 C 
BRANCH   3   4
ATOM      4  O1  UNL     1      29.044 -10.115 -39.450  0.00  0.00    +0.000 OA
BRANCH   4   6
ATOM      5  C1  UNL     1      31.226  -9.640 -38.606  0.00  0.00    +0.000 C 
ATOM      6  C2  UNL     1      30.251  -9.441 -39.763  0.00  0.00    +0.000 C 
BRANCH   6   7
ATOM      7  C14 UNL     1      30.862  -9.999 -41.032  0.00  0.00    +0.000 A 
ATOM      8  C15 UNL     1      30.054 -10.580 -42.026  0.00  0.00    +0.000 A 
ATOM      9  C16 UNL     1      30.630 -11.159 -43.161  0.00  0.00    +0.000 A 
ATOM     10  C17 UNL     1      32.028 -11.181 -43.317  0.00  0.00    +0.000 A 
ATOM     11  C24 UNL     1      32.837 -10.611 -42.318  0.00  0.00    +0.000 A 
ATOM     12  C25 UNL     1      32.259 -10.022 -41.189  0.00  0.00    +0.000 A 
BRANCH  10  13
ATOM     13  C18 UNL     1      32.638 -11.835 -44.500  0.00  0.00    +0.000 A 
ATOM     14  C19 UNL     1      33.370 -11.082 -45.438  0.00  0.00    +0.000 A 
ATOM     15  C20 UNL     1      33.912 -11.701 -46.568  0.00  0.00    +0.000 A 
ATOM     16  C21 UNL     1      33.726 -13.069 -46.778  0.00  0.00    +0.000 A 
ATOM     17  C22 UNL     1      33.006 -13.827 -45.852  0.00  0.00    +0.000 A 
ATOM     18  C23 UNL     1      32.470 -13.218 -44.715  0.00  0.00    +0.000 A 
ENDBRANCH  10  13
ENDBRANCH   6   7
ENDBRANCH   4   6
ENDBRANCH   3   4
ENDBRANCH   2   3
ENDBRANCH   1   2
BRANCH   1  19
ATOM     19  C6  UNL     1      26.210  -6.179 -39.830  0.00  0.00    +0.000 C 
BRANCH  19  20
ATOM     20  C7  UNL     1      24.797  -6.746 -40.055  0.00  0.00    +0.000 C 
BRANCH  20  21
ATOM     21  N1  UNL     1      24.623  -7.255 -41.433  0.00  0.00    +0.000 NA
ATOM     22  C8  UNL     1      23.231  -7.143 -41.907  0.00  0.00    +0.000 C 
ATOM     23  C9  UNL     1      23.190  -7.177 -43.456  0.00  0.00    +0.000 C 
ATOM     24  C10 UNL     1      24.394  -7.955 -44.053  0.00  0.00    +0.000 C 
ATOM     25  C11 UNL     1      24.782  -9.126 -43.135  0.00  0.00    +0.000 C 
ATOM     26  C12 UNL     1      25.230  -8.593 -41.730  0.00  0.00    +0.000 C 
BRANCH  23  27
ATOM     27  O2  UNL     1      21.990  -7.779 -43.880  0.00  0.00    +0.000 OA
ATOM     28  H18 UNL     1      21.364  -7.040 -44.096  0.00  0.00    +0.000 HD
ENDBRANCH  23  27
BRANCH  24  29
ATOM     29  O3  UNL     1      25.499  -7.095 -44.198  0.00  0.00    +0.000 OA
ATOM     30  H20 UNL     1      25.174  -6.264 -44.636  0.00  0.00    +0.000 HD
ENDBRANCH  24  29
BRANCH  25  31
ATOM     31  O4  UNL     1      23.671  -9.985 -43.014  0.00  0.00    +0.000 OA
ATOM     32  H22 UNL     1      23.507 -10.397 -43.903  0.00  0.00    +0.000 HD
ENDBRANCH  25  31
BRANCH  26  33
ATOM     33  C13 UNL     1      24.998  -9.651 -40.622  0.00  0.00    +0.000 C 
BRANCH  33  34
ATOM     34  O5  UNL     1      25.323 -10.930 -41.101  0.00  0.00    +0.000 OA
ATOM     35  H26 UNL     1      25.934 -10.800 -41.876  0.00  0.00    +0.000 HD
ENDBRANCH  33  34
ENDBRANCH  26  33
ENDBRANCH  20  21
ENDBRANCH  19  20
ENDBRANCH   1  19
TORSDOF 14
ENDMDL
MODEL 4
REMARK VINA RESULT:    -6.236      4.338      9.420
REMARK INTER + INTRA:         -11.986
REMARK INTER:                  -9.753
REMARK INTRA:                  -2.233
REMARK UNBOUND:                -1.375
REMARK  Name = resultss/4CJN/ligands/lig_151_t0.pdb
REMARK  15 active torsions:
REMARK  status: ('A' for Active; 'I' for Inactive)
REMARK    1  A    between atoms: C1_1  and  C2_2
REMARK    2  A    between atoms: C2_2  and  O1_3
REMARK    3  A    between atoms: C2_2  and  C14_20
REMARK    4  A    between atoms: O1_3  and  C3_4
REMARK    5  A    between atoms: C3_4  and  C4_5
REMARK    6  A    between atoms: C4_5  and  C5_6
REMARK    7  A    between atoms: C5_6  and  C6_7
REMARK    8  A    between atoms: C6_7  and  C7_8
REMARK    9  A    between atoms: C7_8  and  N1_9
REMARK   10  A    between atoms: C9_11  and  O2_12
REMARK   11  A    between atoms: C10_13  and  O3_14
REMARK   12  A    between atoms: C11_15  and  O4_16
REMARK   13  A    between atoms: C12_17  and  C13_18
REMARK   14  A    between atoms: C13_18  and  O5_19
REMARK   15  A    between atoms: C17_23  and  C18_24
REMARK                            x       y       z     vdW  Elec       q    Type
REMARK                         _______ _______ _______ _____ _____    ______ ____
ROOT
ATOM      1  C5  UNL     1      30.255  -8.142 -36.902  0.00  0.00    +0.000 C 
ENDROOT
BRANCH   1   2
ATOM      2  C4  UNL     1      31.217  -9.286 -36.544  0.00  0.00    +0.000 C 
BRANCH   2   3
ATOM      3  C3  UNL     1      31.882  -9.138 -35.164  0.00  0.00    +0.000 C 
BRANCH   3   4
ATOM      4  O1  UNL     1      31.340 -10.044 -34.223  0.00  0.00    +0.000 OA
BRANCH   4   6
ATOM      5  C1  UNL     1      31.401  -8.001 -32.991  0.00  0.00    +0.000 C 
ATOM      6  C2  UNL     1      30.745  -9.372 -33.126  0.00  0.00    +0.000 C 
BRANCH   6   7
ATOM      7  C14 UNL     1      29.258  -9.194 -33.350  0.00  0.00    +0.000 A 
ATOM      8  C15 UNL     1      28.542 -10.078 -34.177  0.00  0.00    +0.000 A 
ATOM      9  C16 UNL     1      27.185  -9.866 -34.438  0.00  0.00    +0.000 A 
ATOM     10  C17 UNL     1      26.520  -8.755 -33.888  0.00  0.00    +0.000 A 
ATOM     11  C24 UNL     1      27.237  -7.863 -33.072  0.00  0.00    +0.000 A 
ATOM     12  C25 UNL     1      28.592  -8.084 -32.801  0.00  0.00    +0.000 A 
BRANCH  10  13
ATOM     13  C18 UNL     1      25.091  -8.507 -34.204  0.00  0.00    +0.000 A 
ATOM     14  C19 UNL     1      24.082  -8.888 -33.299  0.00  0.00    +0.000 A 
ATOM     15  C20 UNL     1      22.736  -8.683 -33.619  0.00  0.00    +0.000 A 
ATOM     16  C21 UNL     1      22.385  -8.103 -34.841  0.00  0.00    +0.000 A 
ATOM     17  C22 UNL     1      23.378  -7.717 -35.743  0.00  0.00    +0.000 A 
ATOM     18  C23 UNL     1      24.725  -7.910 -35.426  0.00  0.00    +0.000 A 
ENDBRANCH  10  13
ENDBRANCH   6   7
ENDBRANCH   4   6
ENDBRANCH   3   4
ENDBRANCH   2   3
ENDBRANCH   1   2
BRANCH   1  19
ATOM     19  C6  UNL     1      28.953  -8.632 -37.559  0.00  0.00    +0.000 C 
BRANCH  19  20
ATOM     20  C7  UNL     1      29.106  -8.770 -39.084  0.00  0.00    +0.000 C 
BRANCH  20  21
ATOM     21  N1  UNL     1      27.798  -8.713 -39.774  0.00  0.00    +0.000 NA
ATOM     22  C8  UNL     1      26.660  -8.815 -38.842  0.00  0.00    +0.000 C 
ATOM     23  C9  UNL     1      25.380  -8.237 -39.496  0.00  0.00    +0.000 C 
ATOM     24  C10 UNL     1      25.421  -8.340 -41.045  0.00  0.00    +0.000 C 
ATOM     25  C11 UNL     1      26.155  -9.620 -41.477  0.00  0.00    +0.000 C 
ATOM     26  C12 UNL     1      27.642  -9.591 -40.978  0.00  0.00    +0.000 C 
BRANCH  23  27
ATOM     27  O2  UNL     1      24.253  -8.930 -39.013  0.00  0.00    +0.000 OA
ATOM     28  H18 UNL     1      23.700  -8.265 -38.526  0.00  0.00    +0.000 HD
ENDBRANCH  23  27
BRANCH  24  29
ATOM     29  O3  UNL     1      26.085  -7.222 -41.585  0.00  0.00    +0.000 OA
ATOM     30  H20 UNL     1      27.041  -7.289 -41.321  0.00  0.00    +0.000 HD
ENDBRANCH  24  29
BRANCH  25  31
ATOM     31  O4  UNL     1      25.470 -10.730 -40.942  0.00  0.00    +0.000 OA
ATOM     32  H22 UNL     1      24.615 -10.401 -40.555  0.00  0.00    +0.000 HD
ENDBRANCH  25  31
BRANCH  26  33
ATOM     33  C13 UNL     1      28.205 -11.022 -40.792  0.00  0.00    +0.000 C 
BRANCH  33  34
ATOM     34  O5  UNL     1      27.665 -11.606 -39.636  0.00  0.00    +0.000 OA
ATOM     35  H26 UNL     1      27.845 -12.583 -39.696  0.00  0.00    +0.000 HD
ENDBRANCH  33  34
ENDBRANCH  26  33
ENDBRANCH  20  21
ENDBRANCH  19  20
ENDBRANCH   1  19
TORSDOF 14
ENDMDL
MODEL 5
REMARK VINA RESULT:    -6.212      1.697      3.199
REMARK INTER + INTRA:         -11.946
REMARK INTER:                 -10.355
REMARK INTRA:                  -1.591
REMARK UNBOUND:                -1.375
REMARK  Name = resultss/4CJN/ligands/lig_151_t0.pdb
REMARK  15 active torsions:
REMARK  status: ('A' for Active; 'I' for Inactive)
REMARK    1  A    between atoms: C1_1  and  C2_2
REMARK    2  A    between atoms: C2_2  and  O1_3
REMARK    3  A    between atoms: C2_2  and  C14_20
REMARK    4  A    between atoms: O1_3  and  C3_4
REMARK    5  A    between atoms: C3_4  and  C4_5
REMARK    6  A    between atoms: C4_5  and  C5_6
REMARK    7  A    between atoms: C5_6  and  C6_7
REMARK    8  A    between atoms: C6_7  and  C7_8
REMARK    9  A    between atoms: C7_8  and  N1_9
REMARK   10  A    between atoms: C9_11  and  O2_12
REMARK   11  A    between atoms: C10_13  and  O3_14
REMARK   12  A    between atoms: C11_15  and  O4_16
REMARK   13  A    between atoms: C12_17  and  C13_18
REMARK   14  A    between atoms: C13_18  and  O5_19
REMARK   15  A    between atoms: C17_23  and  C18_24
REMARK                            x       y       z     vdW  Elec       q    Type
REMARK                         _______ _______ _______ _____ _____    ______ ____
ROOT
ATOM      1  C5  UNL     1      28.509  -9.834 -36.805  0.00  0.00    +0.000 C 
ENDROOT
BRANCH   1   2
ATOM      2  C4  UNL     1      27.859  -9.864 -38.198  0.00  0.00    +0.000 C 
BRANCH   2   3
ATOM      3  C3  UNL     1      27.573  -8.472 -38.788  0.00  0.00    +0.000 C 
BRANCH   3   4
ATOM      4  O1  UNL     1      28.123  -8.333 -40.085  0.00  0.00    +0.000 OA
BRANCH   4   6
ATOM      5  C1  UNL     1      26.649  -8.821 -41.897  0.00  0.00    +0.000 C 
ATOM      6  C2  UNL     1      27.707  -9.376 -40.949  0.00  0.00    +0.000 C 
BRANCH   6   7
ATOM      7  C14 UNL     1      28.876  -9.899 -41.757  0.00  0.00    +0.000 A 
ATOM      8  C15 UNL     1      29.324  -9.216 -42.902  0.00  0.00    +0.000 A 
ATOM      9  C16 UNL     1      30.356  -9.742 -43.685  0.00  0.00    +0.000 A 
ATOM     10  C17 UNL     1      30.951 -10.971 -43.346  0.00  0.00    +0.000 A 
ATOM     11  C24 UNL     1      30.496 -11.661 -42.209  0.00  0.00    +0.000 A 
ATOM     12  C25 UNL     1      29.471 -11.127 -41.420  0.00  0.00    +0.000 A 
BRANCH  10  13
ATOM     13  C18 UNL     1      32.015 -11.549 -44.204  0.00  0.00    +0.000 A 
ATOM     14  C19 UNL     1      32.863 -10.712 -44.955  0.00  0.00    +0.000 A 
ATOM     15  C20 UNL     1      33.840 -11.266 -45.787  0.00  0.00    +0.000 A 
ATOM     16  C21 UNL     1      33.978 -12.652 -45.885  0.00  0.00    +0.000 A 
ATOM     17  C22 UNL     1      33.145 -13.491 -45.142  0.00  0.00    +0.000 A 
ATOM     18  C23 UNL     1      32.173 -12.946 -44.299  0.00  0.00    +0.000 A 
ENDBRANCH  10  13
ENDBRANCH   6   7
ENDBRANCH   4   6
ENDBRANCH   3   4
ENDBRANCH   2   3
ENDBRANCH   1   2
BRANCH   1  19
ATOM     19  C6  UNL     1      29.370  -8.581 -36.568  0.00  0.00    +0.000 C 
BRANCH  19  20
ATOM     20  C7  UNL     1      28.866  -7.768 -35.363  0.00  0.00    +0.000 C 
BRANCH  20  21
ATOM     21  N1  UNL     1      27.523  -8.209 -34.926  0.00  0.00    +0.000 NA
ATOM     22  C8  UNL     1      26.440  -7.421 -35.544  0.00  0.00    +0.000 C 
ATOM     23  C9  UNL     1      25.108  -8.213 -35.494  0.00  0.00    +0.000 C 
ATOM     24  C10 UNL     1      25.071  -9.214 -34.308  0.00  0.00    +0.000 C 
ATOM     25  C11 UNL     1      25.822  -8.636 -33.098  0.00  0.00    +0.000 C 
ATOM     26  C12 UNL     1      27.331  -8.401 -33.453  0.00  0.00    +0.000 C 
BRANCH  23  27
ATOM     27  O2  UNL     1      24.032  -7.312 -35.379  0.00  0.00    +0.000 OA
ATOM     28  H18 UNL     1      24.040  -6.756 -36.202  0.00  0.00    +0.000 HD
ENDBRANCH  23  27
BRANCH  24  29
ATOM     29  O3  UNL     1      25.669 -10.431 -34.685  0.00  0.00    +0.000 OA
ATOM     30  H20 UNL     1      26.579 -10.452 -34.284  0.00  0.00    +0.000 HD
ENDBRANCH  24  29
BRANCH  25  31
ATOM     31  O4  UNL     1      25.202  -7.427 -32.723  0.00  0.00    +0.000 OA
ATOM     32  H22 UNL     1      25.619  -6.695 -33.251  0.00  0.00    +0.000 HD
ENDBRANCH  25  31
BRANCH  26  33
ATOM     33  C13 UNL     1      27.950  -7.277 -32.584  0.00  0.00    +0.000 C 
BRANCH  33  34
ATOM     34  O5  UNL     1      27.725  -7.539 -31.224  0.00  0.00    +0.000 OA
ATOM     35  H26 UNL     1      28.411  -7.028 -30.715  0.00  0.00    +0.000 HD
ENDBRANCH  33  34
ENDBRANCH  26  33
ENDBRANCH  20  21
ENDBRANCH  19  20
ENDBRANCH   1  19
TORSDOF 14
ENDMDL
MODEL 6
REMARK VINA RESULT:    -6.180      3.658      6.345
REMARK INTER + INTRA:         -11.891
REMARK INTER:                  -9.350
REMARK INTRA:                  -2.540
REMARK UNBOUND:                -1.375
REMARK  Name = resultss/4CJN/ligands/lig_151_t0.pdb
REMARK  15 active torsions:
REMARK  status: ('A' for Active; 'I' for Inactive)
REMARK    1  A    between atoms: C1_1  and  C2_2
REMARK    2  A    between atoms: C2_2  and  O1_3
REMARK    3  A    between atoms: C2_2  and  C14_20
REMARK    4  A    between atoms: O1_3  and  C3_4
REMARK    5  A    between atoms: C3_4  and  C4_5
REMARK    6  A    between atoms: C4_5  and  C5_6
REMARK    7  A    between atoms: C5_6  and  C6_7
REMARK    8  A    between atoms: C6_7  and  C7_8
REMARK    9  A    between atoms: C7_8  and  N1_9
REMARK   10  A    between atoms: C9_11  and  O2_12
REMARK   11  A    between atoms: C10_13  and  O3_14
REMARK   12  A    between atoms: C11_15  and  O4_16
REMARK   13  A    between atoms: C12_17  and  C13_18
REMARK   14  A    between atoms: C13_18  and  O5_19
REMARK   15  A    between atoms: C17_23  and  C18_24
REMARK                            x       y       z     vdW  Elec       q    Type
REMARK                         _______ _______ _______ _____ _____    ______ ____
ROOT
ATOM      1  C5  UNL     1      25.584  -7.588 -39.149  0.00  0.00    +0.000 C 
ENDROOT
BRANCH   1   2
ATOM      2  C4  UNL     1      25.159  -7.924 -40.588  0.00  0.00    +0.000 C 
BRANCH   2   3
ATOM      3  C3  UNL     1      26.257  -8.602 -41.426  0.00  0.00    +0.000 C 
BRANCH   3   4
ATOM      4  O1  UNL     1      26.467  -9.942 -41.025  0.00  0.00    +0.000 OA
BRANCH   4   6
ATOM      5  C1  UNL     1      28.577  -9.303 -41.937  0.00  0.00    +0.000 C 
ATOM      6  C2  UNL     1      27.842 -10.285 -41.030  0.00  0.00    +0.000 C 
BRANCH   6   7
ATOM      7  C14 UNL     1      28.420 -10.201 -39.632  0.00  0.00    +0.000 A 
ATOM      8  C15 UNL     1      27.637 -10.522 -38.508  0.00  0.00    +0.000 A 
ATOM      9  C16 UNL     1      28.153 -10.373 -37.218  0.00  0.00    +0.000 A 
ATOM     10  C17 UNL     1      29.458  -9.884 -37.025  0.00  0.00    +0.000 A 
ATOM     11  C24 UNL     1      30.237  -9.550 -38.147  0.00  0.00    +0.000 A 
ATOM     12  C25 UNL     1      29.723  -9.712 -39.439  0.00  0.00    +0.000 A 
BRANCH  10  13
ATOM     13  C18 UNL     1      29.987  -9.683 -35.653  0.00  0.00    +0.000 A 
ATOM     14  C19 UNL     1      29.127  -9.739 -34.539  0.00  0.00    +0.000 A 
ATOM     15  C20 UNL     1      29.627  -9.515 -33.253  0.00  0.00    +0.000 A 
ATOM     16  C21 UNL     1      30.981  -9.228 -33.065  0.00  0.00    +0.000 A 
ATOM     17  C22 UNL     1      31.843  -9.175 -34.162  0.00  0.00    +0.000 A 
ATOM     18  C23 UNL     1      31.353  -9.408 -35.450  0.00  0.00    +0.000 A 
ENDBRANCH  10  13
ENDBRANCH   6   7
ENDBRANCH   4   6
ENDBRANCH   3   4
ENDBRANCH   2   3
ENDBRANCH   1   2
BRANCH   1  19
ATOM     19  C6  UNL     1      24.802  -8.382 -38.088  0.00  0.00    +0.000 C 
BRANCH  19  20
ATOM     20  C7  UNL     1      24.234  -7.458 -36.997  0.00  0.00    +0.000 C 
BRANCH  20  21
ATOM     21  N1  UNL     1      24.511  -7.978 -35.639  0.00  0.00    +0.000 NA
ATOM     22  C8  UNL     1      23.505  -7.545 -34.651  0.00  0.00    +0.000 C 
ATOM     23  C9  UNL     1      23.516  -8.495 -33.426  0.00  0.00    +0.000 C 
ATOM     24  C10 UNL     1      24.903  -9.163 -33.221  0.00  0.00    +0.000 C 
ATOM     25  C11 UNL     1      26.027  -8.193 -33.620  0.00  0.00    +0.000 C 
ATOM     26  C12 UNL     1      25.916  -7.824 -35.140  0.00  0.00    +0.000 C 
BRANCH  23  27
ATOM     27  O2  UNL     1      23.171  -7.771 -32.269  0.00  0.00    +0.000 OA
ATOM     28  H18 UNL     1      23.444  -8.329 -31.495  0.00  0.00    +0.000 HD
ENDBRANCH  23  27
BRANCH  24  29
ATOM     29  O3  UNL     1      24.998 -10.328 -34.004  0.00  0.00    +0.000 OA
ATOM     30  H20 UNL     1      25.545 -10.984 -33.494  0.00  0.00    +0.000 HD
ENDBRANCH  24  29
BRANCH  25  31
ATOM     31  O4  UNL     1      25.928  -7.039 -32.817  0.00  0.00    +0.000 OA
ATOM     32  H22 UNL     1      26.844  -6.674 -32.695  0.00  0.00    +0.000 HD
ENDBRANCH  25  31
BRANCH  26  33
ATOM     33  C13 UNL     1      26.541  -6.438 -35.435  0.00  0.00    +0.000 C 
BRANCH  33  34
ATOM     34  O5  UNL     1      27.876  -6.409 -35.001  0.00  0.00    +0.000 OA
ATOM     35  H26 UNL     1      27.954  -7.077 -34.267  0.00  0.00    +0.000 HD
ENDBRANCH  33  34
ENDBRANCH  26  33
ENDBRANCH  20  21
ENDBRANCH  19  20
ENDBRANCH   1  19
TORSDOF 14
ENDMDL
MODEL 7
REMARK VINA RESULT:    -6.177      4.259      9.268
REMARK INTER + INTRA:         -11.885
REMARK INTER:                  -9.297
REMARK INTRA:                  -2.588
REMARK UNBOUND:                -1.375
REMARK  Name = resultss/4CJN/ligands/lig_151_t0.pdb
REMARK  15 active torsions:
REMARK  status: ('A' for Active; 'I' for Inactive)
REMARK    1  A    between atoms: C1_1  and  C2_2
REMARK    2  A    between atoms: C2_2  and  O1_3
REMARK    3  A    between atoms: C2_2  and  C14_20
REMARK    4  A    between atoms: O1_3  and  C3_4
REMARK    5  A    between atoms: C3_4  and  C4_5
REMARK    6  A    between atoms: C4_5  and  C5_6
REMARK    7  A    between atoms: C5_6  and  C6_7
REMARK    8  A    between atoms: C6_7  and  C7_8
REMARK    9  A    between atoms: C7_8  and  N1_9
REMARK   10  A    between atoms: C9_11  and  O2_12
REMARK   11  A    between atoms: C10_13  and  O3_14
REMARK   12  A    between atoms: C11_15  and  O4_16
REMARK   13  A    between atoms: C12_17  and  C13_18
REMARK   14  A    between atoms: C13_18  and  O5_19
REMARK   15  A    between atoms: C17_23  and  C18_24
REMARK                            x       y       z     vdW  Elec       q    Type
REMARK                         _______ _______ _______ _____ _____    ______ ____
ROOT
ATOM      1  C5  UNL     1      30.877  -7.872 -37.002  0.00  0.00    +0.000 C 
ENDROOT
BRANCH   1   2
ATOM      2  C4  UNL     1      31.435  -9.207 -36.481  0.00  0.00    +0.000 C 
BRANCH   2   3
ATOM      3  C3  UNL     1      32.023  -9.131 -35.061  0.00  0.00    +0.000 C 
BRANCH   3   4
ATOM      4  O1  UNL     1      31.396 -10.049 -34.186  0.00  0.00    +0.000 OA
BRANCH   4   6
ATOM      5  C1  UNL     1      31.434  -8.021 -32.929  0.00  0.00    +0.000 C 
ATOM      6  C2  UNL     1      30.793  -9.397 -33.081  0.00  0.00    +0.000 C 
BRANCH   6   7
ATOM      7  C14 UNL     1      29.304  -9.233 -33.304  0.00  0.00    +0.000 A 
ATOM      8  C15 UNL     1      28.617 -10.053 -34.216  0.00  0.00    +0.000 A 
ATOM      9  C16 UNL     1      27.258  -9.848 -34.471  0.00  0.00    +0.000 A 
ATOM     10  C17 UNL     1      26.562  -8.807 -33.829  0.00  0.00    +0.000 A 
ATOM     11  C24 UNL     1      27.251  -7.979 -32.926  0.00  0.00    +0.000 A 
ATOM     12  C25 UNL     1      28.609  -8.193 -32.663  0.00  0.00    +0.000 A 
BRANCH  10  13
ATOM     13  C18 UNL     1      25.131  -8.564 -34.136  0.00  0.00    +0.000 A 
ATOM     14  C19 UNL     1      24.128  -8.938 -33.220  0.00  0.00    +0.000 A 
ATOM     15  C20 UNL     1      22.780  -8.737 -33.532  0.00  0.00    +0.000 A 
ATOM     16  C21 UNL     1      22.419  -8.168 -34.756  0.00  0.00    +0.000 A 
ATOM     17  C22 UNL     1      23.405  -7.788 -35.669  0.00  0.00    +0.000 A 
ATOM     18  C23 UNL     1      24.755  -7.977 -35.360  0.00  0.00    +0.000 A 
ENDBRANCH  10  13
ENDBRANCH   6   7
ENDBRANCH   4   6
ENDBRANCH   3   4
ENDBRANCH   2   3
ENDBRANCH   1   2
BRANCH   1  19
ATOM     19  C6  UNL     1      29.367  -7.712 -36.757  0.00  0.00    +0.000 C 
BRANCH  19  20
ATOM     20  C7  UNL     1      28.613  -7.398 -38.061  0.00  0.00    +0.000 C 
BRANCH  20  21
ATOM     21  N1  UNL     1      28.199  -8.631 -38.767  0.00  0.00    +0.000 NA
ATOM     22  C8  UNL     1      28.894  -8.806 -40.057  0.00  0.00    +0.000 C 
ATOM     23  C9  UNL     1      28.847 -10.294 -40.490  0.00  0.00    +0.000 C 
ATOM     24  C10 UNL     1      27.611 -11.031 -39.907  0.00  0.00    +0.000 C 
ATOM     25  C11 UNL     1      26.408 -10.077 -39.826  0.00  0.00    +0.000 C 
ATOM     26  C12 UNL     1      26.725  -8.880 -38.865  0.00  0.00    +0.000 C 
BRANCH  23  27
ATOM     27  O2  UNL     1      28.816 -10.370 -41.896  0.00  0.00    +0.000 OA
ATOM     28  H18 UNL     1      27.996 -10.877 -42.133  0.00  0.00    +0.000 HD
ENDBRANCH  23  27
BRANCH  24  29
ATOM     29  O3  UNL     1      27.903 -11.517 -38.619  0.00  0.00    +0.000 OA
ATOM     30  H20 UNL     1      28.893 -11.511 -38.517  0.00  0.00    +0.000 HD
ENDBRANCH  24  29
BRANCH  25  31
ATOM     31  O4  UNL     1      26.119  -9.612 -41.126  0.00  0.00    +0.000 OA
ATOM     32  H22 UNL     1      25.141  -9.711 -41.273  0.00  0.00    +0.000 HD
ENDBRANCH  25  31
BRANCH  26  33
ATOM     33  C13 UNL     1      25.897  -7.623 -39.233  0.00  0.00    +0.000 C 
BRANCH  33  34
ATOM     34  O5  UNL     1      24.525  -7.909 -39.152  0.00  0.00    +0.000 OA
ATOM     35  H26 UNL     1      24.373  -8.742 -39.675  0.00  0.00    +0.000 HD
ENDBRANCH  33  34
ENDBRANCH  26  33
ENDBRANCH  20  21
ENDBRANCH  19  20
ENDBRANCH   1  19
TORSDOF 14
ENDMDL
MODEL 8
REMARK VINA RESULT:    -6.049      4.245      8.469
REMARK INTER + INTRA:         -11.667
REMARK INTER:                  -9.007
REMARK INTRA:                  -2.660
REMARK UNBOUND:                -1.375
REMARK  Name = resultss/4CJN/ligands/lig_151_t0.pdb
REMARK  15 active torsions:
REMARK  status: ('A' for Active; 'I' for Inactive)
REMARK    1  A    between atoms: C1_1  and  C2_2
REMARK    2  A    between atoms: C2_2  and  O1_3
REMARK    3  A    between atoms: C2_2  and  C14_20
REMARK    4  A    between atoms: O1_3  and  C3_4
REMARK    5  A    between atoms: C3_4  and  C4_5
REMARK    6  A    between atoms: C4_5  and  C5_6
REMARK    7  A    between atoms: C5_6  and  C6_7
REMARK    8  A    between atoms: C6_7  and  C7_8
REMARK    9  A    between atoms: C7_8  and  N1_9
REMARK   10  A    between atoms: C9_11  and  O2_12
REMARK   11  A    between atoms: C10_13  and  O3_14
REMARK   12  A    between atoms: C11_15  and  O4_16
REMARK   13  A    between atoms: C12_17  and  C13_18
REMARK   14  A    between atoms: C13_18  and  O5_19
REMARK   15  A    between atoms: C17_23  and  C18_24
REMARK                            x       y       z     vdW  Elec       q    Type
REMARK                         _______ _______ _______ _____ _____    ______ ____
ROOT
ATOM      1  C5  UNL     1      24.261  -7.002 -36.704  0.00  0.00    +0.000 C 
ENDROOT
BRANCH   1   2
ATOM      2  C4  UNL     1      22.798  -7.170 -36.263  0.00  0.00    +0.000 C 
BRANCH   2   3
ATOM      3  C3  UNL     1      22.630  -7.832 -34.885  0.00  0.00    +0.000 C 
BRANCH   3   4
ATOM      4  O1  UNL     1      23.273  -7.089 -33.867  0.00  0.00    +0.000 OA
BRANCH   4   6
ATOM      5  C1  UNL     1      23.202  -9.213 -32.781  0.00  0.00    +0.000 C 
ATOM      6  C2  UNL     1      23.996  -7.925 -32.980  0.00  0.00    +0.000 C 
BRANCH   6   7
ATOM      7  C14 UNL     1      25.357  -8.263 -33.553  0.00  0.00    +0.000 A 
ATOM      8  C15 UNL     1      26.340  -7.269 -33.708  0.00  0.00    +0.000 A 
ATOM      9  C16 UNL     1      27.568  -7.571 -34.305  0.00  0.00    +0.000 A 
ATOM     10  C17 UNL     1      27.832  -8.872 -34.771  0.00  0.00    +0.000 A 
ATOM     11  C24 UNL     1      26.845  -9.863 -34.627  0.00  0.00    +0.000 A 
ATOM     12  C25 UNL     1      25.621  -9.562 -34.020  0.00  0.00    +0.000 A 
BRANCH  10  13
ATOM     13  C18 UNL     1      29.118  -9.179 -35.444  0.00  0.00    +0.000 A 
ATOM     14  C19 UNL     1      29.134  -9.732 -36.739  0.00  0.00    +0.000 A 
ATOM     15  C20 UNL     1      30.350 -10.050 -37.353  0.00  0.00    +0.000 A 
ATOM     16  C21 UNL     1      31.555  -9.827 -36.683  0.00  0.00    +0.000 A 
ATOM     17  C22 UNL     1      31.551  -9.275 -35.400  0.00  0.00    +0.000 A 
ATOM     18  C23 UNL     1      30.341  -8.945 -34.784  0.00  0.00    +0.000 A 
ENDBRANCH  10  13
ENDBRANCH   6   7
ENDBRANCH   4   6
ENDBRANCH   3   4
ENDBRANCH   2   3
ENDBRANCH   1   2
BRANCH   1  19
ATOM     19  C6  UNL     1      24.835  -8.257 -37.383  0.00  0.00    +0.000 C 
BRANCH  19  20
ATOM     20  C7  UNL     1      24.652  -8.207 -38.910  0.00  0.00    +0.000 C 
BRANCH  20  21
ATOM     21  N1  UNL     1      25.764  -8.878 -39.619  0.00  0.00    +0.000 NA
ATOM     22  C8  UNL     1      26.879  -7.960 -39.921  0.00  0.00    +0.000 C 
ATOM     23  C9  UNL     1      28.182  -8.764 -40.162  0.00  0.00    +0.000 C 
ATOM     24  C10 UNL     1      27.893 -10.198 -40.682  0.00  0.00    +0.000 C 
ATOM     25  C11 UNL     1      26.654 -10.197 -41.592  0.00  0.00    +0.000 C 
ATOM     26  C12 UNL     1      25.388  -9.736 -40.788  0.00  0.00    +0.000 C 
BRANCH  23  27
ATOM     27  O2  UNL     1      28.987  -8.082 -41.095  0.00  0.00    +0.000 OA
ATOM     28  H18 UNL     1      29.564  -7.466 -40.572  0.00  0.00    +0.000 HD
ENDBRANCH  23  27
BRANCH  24  29
ATOM     29  O3  UNL     1      27.671 -11.069 -39.599  0.00  0.00    +0.000 OA
ATOM     30  H20 UNL     1      27.998 -10.611 -38.779  0.00  0.00    +0.000 HD
ENDBRANCH  24  29
BRANCH  25  31
ATOM     31  O4  UNL     1      26.898  -9.333 -42.679  0.00  0.00    +0.000 OA
ATOM     32  H22 UNL     1      27.305  -8.500 -42.320  0.00  0.00    +0.000 HD
ENDBRANCH  25  31
BRANCH  26  33
ATOM     33  C13 UNL     1      24.325  -9.101 -41.720  0.00  0.00    +0.000 C 
BRANCH  33  34
ATOM     34  O5  UNL     1      23.889 -10.042 -42.666  0.00  0.00    +0.000 OA
ATOM     35  H26 UNL     1      22.947  -9.810 -42.888  0.00  0.00    +0.000 HD
ENDBRANCH  33  34
ENDBRANCH  26  33
ENDBRANCH  20  21
ENDBRANCH  19  20
ENDBRANCH   1  19
TORSDOF 14
ENDMDL
MODEL 9
REMARK VINA RESULT:    -6.029      4.299      9.023
REMARK INTER + INTRA:         -11.634
REMARK INTER:                  -9.498
REMARK INTRA:                  -2.137
REMARK UNBOUND:                -1.375
REMARK  Name = resultss/4CJN/ligands/lig_151_t0.pdb
REMARK  15 active torsions:
REMARK  status: ('A' for Active; 'I' for Inactive)
REMARK    1  A    between atoms: C1_1  and  C2_2
REMARK    2  A    between atoms: C2_2  and  O1_3
REMARK    3  A    between atoms: C2_2  and  C14_20
REMARK    4  A    between atoms: O1_3  and  C3_4
REMARK    5  A    between atoms: C3_4  and  C4_5
REMARK    6  A    between atoms: C4_5  and  C5_6
REMARK    7  A    between atoms: C5_6  and  C6_7
REMARK    8  A    between atoms: C6_7  and  C7_8
REMARK    9  A    between atoms: C7_8  and  N1_9
REMARK   10  A    between atoms: C9_11  and  O2_12
REMARK   11  A    between atoms: C10_13  and  O3_14
REMARK   12  A    between atoms: C11_15  and  O4_16
REMARK   13  A    between atoms: C12_17  and  C13_18
REMARK   14  A    between atoms: C13_18  and  O5_19
REMARK   15  A    between atoms: C17_23  and  C18_24
REMARK                            x       y       z     vdW  Elec       q    Type
REMARK                         _______ _______ _______ _____ _____    ______ ____
ROOT
ATOM      1  C5  UNL     1      24.079  -6.742 -37.412  0.00  0.00    +0.000 C 
ENDROOT
BRANCH   1   2
ATOM      2  C4  UNL     1      23.572  -6.450 -35.990  0.00  0.00    +0.000 C 
BRANCH   2   3
ATOM      3  C3  UNL     1      22.448  -7.389 -35.519  0.00  0.00    +0.000 C 
BRANCH   3   4
ATOM      4  O1  UNL     1      22.959  -8.496 -34.800  0.00  0.00    +0.000 OA
BRANCH   4   6
ATOM      5  C1  UNL     1      23.088  -8.905 -32.453  0.00  0.00    +0.000 C 
ATOM      6  C2  UNL     1      23.635  -8.092 -33.622  0.00  0.00    +0.000 C 
BRANCH   6   7
ATOM      7  C14 UNL     1      25.124  -8.339 -33.748  0.00  0.00    +0.000 A 
ATOM      8  C15 UNL     1      25.612  -9.563 -34.239  0.00  0.00    +0.000 A 
ATOM      9  C16 UNL     1      26.987  -9.813 -34.285  0.00  0.00    +0.000 A 
ATOM     10  C17 UNL     1      27.901  -8.848 -33.825  0.00  0.00    +0.000 A 
ATOM     11  C24 UNL     1      27.414  -7.629 -33.322  0.00  0.00    +0.000 A 
ATOM     12  C25 UNL     1      26.038  -7.375 -33.289  0.00  0.00    +0.000 A 
BRANCH  10  13
ATOM     13  C18 UNL     1      29.357  -9.133 -33.833  0.00  0.00    +0.000 A 
ATOM     14  C19 UNL     1      30.108  -8.994 -35.016  0.00  0.00    +0.000 A 
ATOM     15  C20 UNL     1      31.473  -9.299 -35.022  0.00  0.00    +0.000 A 
ATOM     16  C21 UNL     1      32.099  -9.748 -33.857  0.00  0.00    +0.000 A 
ATOM     17  C22 UNL     1      31.365  -9.884 -32.677  0.00  0.00    +0.000 A 
ATOM     18  C23 UNL     1      30.003  -9.572 -32.660  0.00  0.00    +0.000 A 
ENDBRANCH  10  13
ENDBRANCH   6   7
ENDBRANCH   4   6
ENDBRANCH   3   4
ENDBRANCH   2   3
ENDBRANCH   1   2
BRANCH   1  19
ATOM     19  C6  UNL     1      24.998  -7.974 -37.483  0.00  0.00    +0.000 C 
BRANCH  19  20
ATOM     20  C7  UNL     1      26.350  -7.634 -38.135  0.00  0.00    +0.000 C 
BRANCH  20  21
ATOM     21  N1  UNL     1      26.610  -8.468 -39.328  0.00  0.00    +0.000 NA
ATOM     22  C8  UNL     1      25.408  -9.186 -39.791  0.00  0.00    +0.000 C 
ATOM     23  C9  UNL     1      25.570  -9.598 -41.276  0.00  0.00    +0.000 C 
ATOM     24  C10 UNL     1      27.061  -9.778 -41.670  0.00  0.00    +0.000 C 
ATOM     25  C11 UNL     1      27.862 -10.343 -40.486  0.00  0.00    +0.000 C 
ATOM     26  C12 UNL     1      27.824  -9.345 -39.277  0.00  0.00    +0.000 C 
BRANCH  23  27
ATOM     27  O2  UNL     1      24.877 -10.802 -41.507  0.00  0.00    +0.000 OA
ATOM     28  H18 UNL     1      23.956 -10.668 -41.160  0.00  0.00    +0.000 HD
ENDBRANCH  23  27
BRANCH  24  29
ATOM     29  O3  UNL     1      27.612  -8.542 -42.054  0.00  0.00    +0.000 OA
ATOM     30  H20 UNL     1      27.561  -8.489 -43.046  0.00  0.00    +0.000 HD
ENDBRANCH  24  29
BRANCH  25  31
ATOM     31  O4  UNL     1      27.308 -11.588 -40.125  0.00  0.00    +0.000 OA
ATOM     32  H22 UNL     1      26.353 -11.440 -39.892  0.00  0.00    +0.000 HD
ENDBRANCH  25  31
BRANCH  26  33
ATOM     33  C13 UNL     1      28.012 -10.083 -37.927  0.00  0.00    +0.000 C 
BRANCH  33  34
ATOM     34  O5  UNL     1      29.243 -10.756 -37.913  0.00  0.00    +0.000 OA
ATOM     35  H26 UNL     1      29.523 -10.823 -36.960  0.00  0.00    +0.000 HD
ENDBRANCH  33  34
ENDBRANCH  26  33
ENDBRANCH  20  21
ENDBRANCH  19  20
ENDBRANCH   1  19
TORSDOF 14
ENDMDL
