MODEL 1
REMARK VINA RESULT:    -6.682      0.000      0.000
REMARK INTER + INTRA:         -11.304
REMARK INTER:                 -10.003
REMARK INTRA:                  -1.301
REMARK UNBOUND:                -1.301
REMARK  Name = resultss/4CJN/ligands/lig_327_t0.pdb
REMARK  14 active torsions:
REMARK  status: ('A' for Active; 'I' for Inactive)
REMARK    1  A    between atoms: C1_1  and  O1_2
REMARK    2  A    between atoms: O1_2  and  C2_3
REMARK    3  A    between atoms: C4_5  and  O2_6
REMARK    4  A    between atoms: C8_11  and  O4_12
REMARK    5  A    between atoms: C9_13  and  O5_14
REMARK    6  A    between atoms: O5_14  and  C10_15
REMARK    7  A    between atoms: C12_18  and  O7_19
REMARK    8  A    between atoms: C13_20  and  O8_21
REMARK    9  A    between atoms: C14_22  and  O9_23
REMARK   10  A    between atoms: O9_23  and  C15_24
REMARK   11  A    between atoms: C16_26  and  C17_27
REMARK   12  A    between atoms: C18_28  and  O11_29
REMARK   13  A    between atoms: C19_30  and  O12_31
REMARK   14  A    between atoms: C20_32  and  O13_33
REMARK                            x       y       z     vdW  Elec       q    Type
REMARK                         _______ _______ _______ _____ _____    ______ ____
ROOT
ATOM      1  C10 UNL     1      27.735  -8.353 -40.145  0.00  0.00    +0.000 C 
ATOM      2  O6  UNL     1      28.874  -7.906 -40.867  0.00  0.00    +0.000 OA
ATOM      3  C11 UNL     1      29.631  -8.995 -41.366  0.00  0.00    +0.000 C 
ATOM      4  C12 UNL     1      30.111  -9.949 -40.246  0.00  0.00    +0.000 C 
ATOM      5  C13 UNL     1      29.650  -9.452 -38.867  0.00  0.00    +0.000 C 
ATOM      6  C14 UNL     1      28.133  -9.198 -38.901  0.00  0.00    +0.000 C 
ENDROOT
BRANCH   4   7
ATOM      7  O7  UNL     1      31.515 -10.037 -40.261  0.00  0.00    +0.000 OA
ATOM      8  H11 UNL     1      31.777 -10.441 -41.129  0.00  0.00    +0.000 HD
ENDBRANCH   4   7
BRANCH   5   9
ATOM      9  O8  UNL     1      29.953 -10.422 -37.898  0.00  0.00    +0.000 OA
ATOM     10  H13 UNL     1      30.572 -11.074 -38.324  0.00  0.00    +0.000 HD
ENDBRANCH   5   9
BRANCH   1  11
ATOM     11  O5  UNL     1      26.855  -9.117 -40.975  0.00  0.00    +0.000 OA
BRANCH  11  20
ATOM     12  C2  UNL     1      21.682  -6.413 -47.552  0.00  0.00    +0.000 A 
ATOM     13  C3  UNL     1      22.923  -6.409 -48.209  0.00  0.00    +0.000 A 
ATOM     14  C4  UNL     1      24.101  -6.736 -47.521  0.00  0.00    +0.000 A 
ATOM     15  C5  UNL     1      24.045  -7.075 -46.149  0.00  0.00    +0.000 A 
ATOM     16  C6  UNL     1      25.189  -7.420 -45.394  0.00  0.00    +0.000 A 
ATOM     17  O3  UNL     1      26.330  -7.324 -45.918  0.00  0.00    +0.000 OA
ATOM     18  C7  UNL     1      25.044  -7.846 -44.048  0.00  0.00    +0.000 A 
ATOM     19  C8  UNL     1      26.122  -8.316 -43.232  0.00  0.00    +0.000 A 
ATOM     20  C9  UNL     1      25.879  -8.647 -41.874  0.00  0.00    +0.000 A 
ATOM     21  C21 UNL     1      24.586  -8.541 -41.360  0.00  0.00    +0.000 A 
ATOM     22  C22 UNL     1      23.527  -8.133 -42.160  0.00  0.00    +0.000 A 
ATOM     23  C23 UNL     1      23.741  -7.793 -43.492  0.00  0.00    +0.000 A 
ATOM     24  O14 UNL     1      22.699  -7.423 -44.224  0.00  0.00    +0.000 OA
ATOM     25  C24 UNL     1      22.793  -7.086 -45.501  0.00  0.00    +0.000 A 
ATOM     26  C25 UNL     1      21.631  -6.745 -46.199  0.00  0.00    +0.000 A 
BRANCH  12  28
ATOM     27  C1  UNL     1      20.006  -6.757 -49.375  0.00  0.00    +0.000 C 
ATOM     28  O1  UNL     1      20.481  -6.099 -48.206  0.00  0.00    +0.000 OA
ENDBRANCH  12  28
BRANCH  14  29
ATOM     29  O2  UNL     1      25.315  -6.735 -48.213  0.00  0.00    +0.000 OA
ATOM     30  H5  UNL     1      25.400  -6.343 -49.140  0.00  0.00    +0.000 HD
ENDBRANCH  14  29
BRANCH  19  31
ATOM     31  O4  UNL     1      27.405  -8.502 -43.748  0.00  0.00    +0.000 OA
ATOM     32  H6  UNL     1      28.129  -9.012 -43.263  0.00  0.00    +0.000 HD
ENDBRANCH  19  31
ENDBRANCH  11  20
ENDBRANCH   1  11
BRANCH   6  33
ATOM     33  O9  UNL     1      27.754  -8.512 -37.715  0.00  0.00    +0.000 OA
BRANCH  33  34
ATOM     34  C15 UNL     1      26.934  -9.319 -36.890  0.00  0.00    +0.000 C 
ATOM     35  O10 UNL     1      25.558  -9.032 -37.125  0.00  0.00    +0.000 OA
ATOM     36  C16 UNL     1      25.107  -7.951 -36.336  0.00  0.00    +0.000 C 
ATOM     37  C17 UNL     1      23.760  -7.472 -36.873  0.00  0.00    +0.000 C 
ATOM     38  C18 UNL     1      24.985  -8.397 -34.862  0.00  0.00    +0.000 C 
ATOM     39  C19 UNL     1      26.165  -9.329 -34.458  0.00  0.00    +0.000 C 
ATOM     40  C20 UNL     1      27.367  -9.151 -35.405  0.00  0.00    +0.000 C 
BRANCH  38  41
ATOM     41  O11 UNL     1      24.965  -7.264 -34.032  0.00  0.00    +0.000 OA
ATOM     42  H21 UNL     1      24.842  -7.604 -33.104  0.00  0.00    +0.000 HD
ENDBRANCH  38  41
BRANCH  39  43
ATOM     43  O12 UNL     1      25.758 -10.676 -34.413  0.00  0.00    +0.000 OA
ATOM     44  H23 UNL     1      25.285 -10.829 -33.555  0.00  0.00    +0.000 HD
ENDBRANCH  39  43
BRANCH  40  45
ATOM     45  O13 UNL     1      28.372 -10.075 -35.076  0.00  0.00    +0.000 OA
ATOM     46  H25 UNL     1      28.559  -9.967 -34.107  0.00  0.00    +0.000 HD
ENDBRANCH  40  45
ENDBRANCH  33  34
ENDBRANCH   6  33
TORSDOF 12
ENDMDL
MODEL 2
REMARK VINA RESULT:    -6.657      1.500      2.308
REMARK INTER + INTRA:         -11.266
REMARK INTER:                 -10.315
REMARK INTRA:                  -0.951
REMARK UNBOUND:                -1.301
REMARK  Name = resultss/4CJN/ligands/lig_327_t0.pdb
REMARK  14 active torsions:
REMARK  status: ('A' for Active; 'I' for Inactive)
REMARK    1  A    between atoms: C1_1  and  O1_2
REMARK    2  A    between atoms: O1_2  and  C2_3
REMARK    3  A    between atoms: C4_5  and  O2_6
REMARK    4  A    between atoms: C8_11  and  O4_12
REMARK    5  A    between atoms: C9_13  and  O5_14
REMARK    6  A    between atoms: O5_14  and  C10_15
REMARK    7  A    between atoms: C12_18  and  O7_19
REMARK    8  A    between atoms: C13_20  and  O8_21
REMARK    9  A    between atoms: C14_22  and  O9_23
REMARK   10  A    between atoms: O9_23  and  C15_24
REMARK   11  A    between atoms: C16_26  and  C17_27
REMARK   12  A    between atoms: C18_28  and  O11_29
REMARK   13  A    between atoms: C19_30  and  O12_31
REMARK   14  A    between atoms: C20_32  and  O13_33
REMARK                            x       y       z     vdW  Elec       q    Type
REMARK                         _______ _______ _______ _____ _____    ______ ____
ROOT
ATOM      1  C10 UNL     1      28.037  -7.819 -40.319  0.00  0.00    +0.000 C 
ATOM      2  O6  UNL     1      29.389  -7.650 -39.915  0.00  0.00    +0.000 OA
ATOM      3  C11 UNL     1      30.285  -8.157 -40.887  0.00  0.00    +0.000 C 
ATOM      4  C12 UNL     1      30.052  -9.657 -41.188  0.00  0.00    +0.000 C 
ATOM      5  C13 UNL     1      28.907 -10.216 -40.332  0.00  0.00    +0.000 C 
ATOM      6  C14 UNL     1      27.667  -9.319 -40.494  0.00  0.00    +0.000 C 
ENDROOT
BRANCH   4   7
ATOM      7  O7  UNL     1      31.227 -10.386 -40.924  0.00  0.00    +0.000 OA
ATOM      8  H11 UNL     1      31.660  -9.975 -40.132  0.00  0.00    +0.000 HD
ENDBRANCH   4   7
BRANCH   5   9
ATOM      9  O8  UNL     1      28.610 -11.525 -40.748  0.00  0.00    +0.000 OA
ATOM     10  H13 UNL     1      29.477 -12.003 -40.839  0.00  0.00    +0.000 HD
ENDBRANCH   5   9
BRANCH   1  11
ATOM     11  O5  UNL     1      27.761  -7.117 -41.535  0.00  0.00    +0.000 OA
BRANCH  11  20
ATOM     12  C2  UNL     1      20.589  -6.914 -46.621  0.00  0.00    +0.000 A 
ATOM     13  C3  UNL     1      21.534  -7.358 -47.560  0.00  0.00    +0.000 A 
ATOM     14  C4  UNL     1      22.884  -7.501 -47.208  0.00  0.00    +0.000 A 
ATOM     15  C5  UNL     1      23.307  -7.196 -45.893  0.00  0.00    +0.000 A 
ATOM     16  C6  UNL     1      24.648  -7.321 -45.467  0.00  0.00    +0.000 A 
ATOM     17  O3  UNL     1      25.541  -7.613 -46.305  0.00  0.00    +0.000 OA
ATOM     18  C7  UNL     1      24.980  -7.093 -44.106  0.00  0.00    +0.000 A 
ATOM     19  C8  UNL     1      26.284  -7.296 -43.551  0.00  0.00    +0.000 A 
ATOM     20  C9  UNL     1      26.525  -6.965 -42.192  0.00  0.00    +0.000 A 
ATOM     21  C21 UNL     1      25.480  -6.478 -41.406  0.00  0.00    +0.000 A 
ATOM     22  C22 UNL     1      24.202  -6.327 -41.925  0.00  0.00    +0.000 A 
ATOM     23  C23 UNL     1      23.942  -6.635 -43.257  0.00  0.00    +0.000 A 
ATOM     24  O14 UNL     1      22.702  -6.490 -43.708  0.00  0.00    +0.000 OA
ATOM     25  C24 UNL     1      22.349  -6.760 -44.955  0.00  0.00    +0.000 A 
ATOM     26  C25 UNL     1      21.009  -6.611 -45.326  0.00  0.00    +0.000 A 
BRANCH  12  28
ATOM     27  C1  UNL     1      18.247  -7.777 -46.749  0.00  0.00    +0.000 C 
ATOM     28  O1  UNL     1      19.229  -6.764 -46.931  0.00  0.00    +0.000 OA
ENDBRANCH  12  28
BRANCH  14  29
ATOM     29  O2  UNL     1      23.792  -7.960 -48.166  0.00  0.00    +0.000 OA
ATOM     30  H5  UNL     1      23.528  -8.634 -48.871  0.00  0.00    +0.000 HD
ENDBRANCH  14  29
BRANCH  19  31
ATOM     31  O4  UNL     1      27.321  -7.853 -44.299  0.00  0.00    +0.000 OA
ATOM     32  H6  UNL     1      28.295  -7.636 -44.145  0.00  0.00    +0.000 HD
ENDBRANCH  19  31
ENDBRANCH  11  20
ENDBRANCH   1  11
BRANCH   6  33
ATOM     33  O9  UNL     1      26.698  -9.690 -39.524  0.00  0.00    +0.000 OA
BRANCH  33  34
ATOM     34  C15 UNL     1      26.530  -8.679 -38.547  0.00  0.00    +0.000 C 
ATOM     35  O10 UNL     1      27.559  -8.762 -37.565  0.00  0.00    +0.000 OA
ATOM     36  C16 UNL     1      27.226  -9.668 -36.533  0.00  0.00    +0.000 C 
ATOM     37  C17 UNL     1      28.480  -9.976 -35.718  0.00  0.00    +0.000 C 
ATOM     38  C18 UNL     1      26.124  -9.056 -35.640  0.00  0.00    +0.000 C 
ATOM     39  C19 UNL     1      25.070  -8.291 -36.491  0.00  0.00    +0.000 C 
ATOM     40  C20 UNL     1      25.092  -8.759 -37.960  0.00  0.00    +0.000 C 
BRANCH  38  41
ATOM     41  O11 UNL     1      25.497 -10.078 -34.908  0.00  0.00    +0.000 OA
ATOM     42  H21 UNL     1      25.990 -10.916 -35.127  0.00  0.00    +0.000 HD
ENDBRANCH  38  41
BRANCH  39  43
ATOM     43  O12 UNL     1      25.261  -6.898 -36.407  0.00  0.00    +0.000 OA
ATOM     44  H23 UNL     1      24.617  -6.536 -35.746  0.00  0.00    +0.000 HD
ENDBRANCH  39  43
BRANCH  40  45
ATOM     45  O13 UNL     1      24.203  -7.980 -38.719  0.00  0.00    +0.000 OA
ATOM     46  H25 UNL     1      23.388  -7.851 -38.168  0.00  0.00    +0.000 HD
ENDBRANCH  40  45
ENDBRANCH  33  34
ENDBRANCH   6  33
TORSDOF 12
ENDMDL
MODEL 3
REMARK VINA RESULT:    -6.558      1.397      1.717
REMARK INTER + INTRA:         -11.118
REMARK INTER:                  -9.673
REMARK INTRA:                  -1.445
REMARK UNBOUND:                -1.301
REMARK  Name = resultss/4CJN/ligands/lig_327_t0.pdb
REMARK  14 active torsions:
REMARK  status: ('A' for Active; 'I' for Inactive)
REMARK    1  A    between atoms: C1_1  and  O1_2
REMARK    2  A    between atoms: O1_2  and  C2_3
REMARK    3  A    between atoms: C4_5  and  O2_6
REMARK    4  A    between atoms: C8_11  and  O4_12
REMARK    5  A    between atoms: C9_13  and  O5_14
REMARK    6  A    between atoms: O5_14  and  C10_15
REMARK    7  A    between atoms: C12_18  and  O7_19
REMARK    8  A    between atoms: C13_20  and  O8_21
REMARK    9  A    between atoms: C14_22  and  O9_23
REMARK   10  A    between atoms: O9_23  and  C15_24
REMARK   11  A    between atoms: C16_26  and  C17_27
REMARK   12  A    between atoms: C18_28  and  O11_29
REMARK   13  A    between atoms: C19_30  and  O12_31
REMARK   14  A    between atoms: C20_32  and  O13_33
REMARK                            x       y       z     vdW  Elec       q    Type
REMARK                         _______ _______ _______ _____ _____    ______ ____
ROOT
ATOM      1  C10 UNL     1      28.154  -8.025 -39.861  0.00  0.00    +0.000 C 
ATOM      2  O6  UNL     1      29.429  -7.649 -40.363  0.00  0.00    +0.000 OA
ATOM      3  C11 UNL     1      30.154  -8.774 -40.827  0.00  0.00    +0.000 C 
ATOM      4  C12 UNL     1      30.361  -9.844 -39.729  0.00  0.00    +0.000 C 
ATOM      5  C13 UNL     1      29.734  -9.395 -38.401  0.00  0.00    +0.000 C 
ATOM      6  C14 UNL     1      28.271  -8.986 -38.644  0.00  0.00    +0.000 C 
ENDROOT
BRANCH   4   7
ATOM      7  O7  UNL     1      31.736 -10.074 -39.537  0.00  0.00    +0.000 OA
ATOM      8  H11 UNL     1      32.179  -9.976 -40.420  0.00  0.00    +0.000 HD
ENDBRANCH   4   7
BRANCH   5   9
ATOM      9  O8  UNL     1      29.789 -10.453 -37.478  0.00  0.00    +0.000 OA
ATOM     10  H13 UNL     1      30.744 -10.567 -37.226  0.00  0.00    +0.000 HD
ENDBRANCH   5   9
BRANCH   1  11
ATOM     11  O5  UNL     1      27.352  -8.638 -40.874  0.00  0.00    +0.000 OA
BRANCH  11  20
ATOM     12  C2  UNL     1      19.904  -6.531 -45.050  0.00  0.00    +0.000 A 
ATOM     13  C3  UNL     1      20.758  -6.690 -46.153  0.00  0.00    +0.000 A 
ATOM     14  C4  UNL     1      22.116  -6.993 -45.973  0.00  0.00    +0.000 A 
ATOM     15  C5  UNL     1      22.638  -7.141 -44.667  0.00  0.00    +0.000 A 
ATOM     16  C6  UNL     1      23.993  -7.450 -44.409  0.00  0.00    +0.000 A 
ATOM     17  O3  UNL     1      24.811  -7.495 -45.365  0.00  0.00    +0.000 OA
ATOM     18  C7  UNL     1      24.423  -7.682 -43.077  0.00  0.00    +0.000 A 
ATOM     19  C8  UNL     1      25.743  -8.104 -42.719  0.00  0.00    +0.000 A 
ATOM     20  C9  UNL     1      26.089  -8.234 -41.349  0.00  0.00    +0.000 A 
ATOM     21  C21 UNL     1      25.128  -7.982 -40.369  0.00  0.00    +0.000 A 
ATOM     22  C22 UNL     1      23.832  -7.621 -40.711  0.00  0.00    +0.000 A 
ATOM     23  C23 UNL     1      23.471  -7.477 -42.047  0.00  0.00    +0.000 A 
ATOM     24  O14 UNL     1      22.217  -7.146 -42.330  0.00  0.00    +0.000 OA
ATOM     25  C24 UNL     1      21.770  -6.989 -43.566  0.00  0.00    +0.000 A 
ATOM     26  C25 UNL     1      20.423  -6.675 -43.764  0.00  0.00    +0.000 A 
BRANCH  12  28
ATOM     27  C1  UNL     1      17.519  -6.727 -44.328  0.00  0.00    +0.000 C 
ATOM     28  O1  UNL     1      18.540  -6.235 -45.189  0.00  0.00    +0.000 OA
ENDBRANCH  12  28
BRANCH  14  29
ATOM     29  O2  UNL     1      22.931  -7.159 -47.096  0.00  0.00    +0.000 OA
ATOM     30  H5  UNL     1      23.939  -7.108 -47.036  0.00  0.00    +0.000 HD
ENDBRANCH  14  29
BRANCH  19  31
ATOM     31  O4  UNL     1      26.694  -8.435 -43.685  0.00  0.00    +0.000 OA
ATOM     32  H6  UNL     1      26.455  -8.725 -44.622  0.00  0.00    +0.000 HD
ENDBRANCH  19  31
ENDBRANCH  11  20
ENDBRANCH   1  11
BRANCH   6  33
ATOM     33  O9  UNL     1      27.770  -8.345 -37.478  0.00  0.00    +0.000 OA
BRANCH  33  34
ATOM     34  C15 UNL     1      26.897  -9.193 -36.756  0.00  0.00    +0.000 C 
ATOM     35  O10 UNL     1      25.539  -8.861 -37.034  0.00  0.00    +0.000 OA
ATOM     36  C16 UNL     1      25.069  -7.831 -36.189  0.00  0.00    +0.000 C 
ATOM     37  C17 UNL     1      23.758  -7.286 -36.753  0.00  0.00    +0.000 C 
ATOM     38  C18 UNL     1      24.867  -8.381 -34.760  0.00  0.00    +0.000 C 
ATOM     39  C19 UNL     1      26.009  -9.364 -34.370  0.00  0.00    +0.000 C 
ATOM     40  C20 UNL     1      27.259  -9.143 -35.243  0.00  0.00    +0.000 C 
BRANCH  38  41
ATOM     41  O11 UNL     1      24.825  -7.312 -33.851  0.00  0.00    +0.000 OA
ATOM     42  H21 UNL     1      23.886  -6.979 -33.860  0.00  0.00    +0.000 HD
ENDBRANCH  38  41
BRANCH  39  43
ATOM     43  O12 UNL     1      25.577 -10.703 -34.445  0.00  0.00    +0.000 OA
ATOM     44  H23 UNL     1      25.855 -11.070 -35.324  0.00  0.00    +0.000 HD
ENDBRANCH  39  43
BRANCH  40  45
ATOM     45  O13 UNL     1      28.231 -10.109 -34.935  0.00  0.00    +0.000 OA
ATOM     46  H25 UNL     1      28.927 -10.055 -35.641  0.00  0.00    +0.000 HD
ENDBRANCH  40  45
ENDBRANCH  33  34
ENDBRANCH   6  33
TORSDOF 12
ENDMDL
MODEL 4
REMARK VINA RESULT:    -6.459      5.853      8.412
REMARK INTER + INTRA:         -10.970
REMARK INTER:                  -9.357
REMARK INTRA:                  -1.613
REMARK UNBOUND:                -1.301
REMARK  Name = resultss/4CJN/ligands/lig_327_t0.pdb
REMARK  14 active torsions:
REMARK  status: ('A' for Active; 'I' for Inactive)
REMARK    1  A    between atoms: C1_1  and  O1_2
REMARK    2  A    between atoms: O1_2  and  C2_3
REMARK    3  A    between atoms: C4_5  and  O2_6
REMARK    4  A    between atoms: C8_11  and  O4_12
REMARK    5  A    between atoms: C9_13  and  O5_14
REMARK    6  A    between atoms: O5_14  and  C10_15
REMARK    7  A    between atoms: C12_18  and  O7_19
REMARK    8  A    between atoms: C13_20  and  O8_21
REMARK    9  A    between atoms: C14_22  and  O9_23
REMARK   10  A    between atoms: O9_23  and  C15_24
REMARK   11  A    between atoms: C16_26  and  C17_27
REMARK   12  A    between atoms: C18_28  and  O11_29
REMARK   13  A    between atoms: C19_30  and  O12_31
REMARK   14  A    between atoms: C20_32  and  O13_33
REMARK                            x       y       z     vdW  Elec       q    Type
REMARK                         _______ _______ _______ _____ _____    ______ ____
ROOT
ATOM      1  C10 UNL     1      27.782  -9.645 -35.293  0.00  0.00    +0.000 C 
ATOM      2  O6  UNL     1      26.428 -10.066 -35.382  0.00  0.00    +0.000 OA
ATOM      3  C11 UNL     1      25.543  -8.961 -35.407  0.00  0.00    +0.000 C 
ATOM      4  C12 UNL     1      25.688  -8.054 -34.161  0.00  0.00    +0.000 C 
ATOM      5  C13 UNL     1      26.755  -8.604 -33.203  0.00  0.00    +0.000 C 
ATOM      6  C14 UNL     1      28.057  -8.853 -33.983  0.00  0.00    +0.000 C 
ENDROOT
BRANCH   4   7
ATOM      7  O7  UNL     1      24.457  -7.969 -33.484  0.00  0.00    +0.000 OA
ATOM      8  H11 UNL     1      24.296  -8.846 -33.050  0.00  0.00    +0.000 HD
ENDBRANCH   4   7
BRANCH   5   9
ATOM      9  O8  UNL     1      26.981  -7.675 -32.174  0.00  0.00    +0.000 OA
ATOM     10  H13 UNL     1      26.189  -7.075 -32.147  0.00  0.00    +0.000 HD
ENDBRANCH   5   9
BRANCH   1  11
ATOM     11  O5  UNL     1      28.157  -8.846 -36.419  0.00  0.00    +0.000 OA
BRANCH  11  20
ATOM     12  C2  UNL     1      32.294 -11.419 -43.741  0.00  0.00    +0.000 A 
ATOM     13  C3  UNL     1      33.374 -10.857 -43.043  0.00  0.00    +0.000 A 
ATOM     14  C4  UNL     1      33.184 -10.251 -41.792  0.00  0.00    +0.000 A 
ATOM     15  C5  UNL     1      31.891 -10.201 -41.221  0.00  0.00    +0.000 A 
ATOM     16  C6  UNL     1      31.626  -9.612 -39.965  0.00  0.00    +0.000 A 
ATOM     17  O3  UNL     1      32.546  -9.005 -39.358  0.00  0.00    +0.000 OA
ATOM     18  C7  UNL     1      30.321  -9.688 -39.410  0.00  0.00    +0.000 A 
ATOM     19  C8  UNL     1      29.973  -9.219 -38.104  0.00  0.00    +0.000 A 
ATOM     20  C9  UNL     1      28.621  -9.276 -37.677  0.00  0.00    +0.000 A 
ATOM     21  C21 UNL     1      27.654  -9.819 -38.523  0.00  0.00    +0.000 A 
ATOM     22  C22 UNL     1      27.994 -10.321 -39.772  0.00  0.00    +0.000 A 
ATOM     23  C23 UNL     1      29.311 -10.268 -40.218  0.00  0.00    +0.000 A 
ATOM     24  O14 UNL     1      29.594 -10.773 -41.412  0.00  0.00    +0.000 OA
ATOM     25  C24 UNL     1      30.814 -10.777 -41.926  0.00  0.00    +0.000 A 
ATOM     26  C25 UNL     1      31.019 -11.366 -43.177  0.00  0.00    +0.000 A 
BRANCH  12  28
ATOM     27  C1  UNL     1      32.740 -13.420 -45.171  0.00  0.00    +0.000 C 
ATOM     28  O1  UNL     1      32.443 -12.040 -44.990  0.00  0.00    +0.000 OA
ENDBRANCH  12  28
BRANCH  14  29
ATOM     29  O2  UNL     1      34.287  -9.716 -41.121  0.00  0.00    +0.000 OA
ATOM     30  H5  UNL     1      35.193  -9.638 -41.561  0.00  0.00    +0.000 HD
ENDBRANCH  14  29
BRANCH  19  31
ATOM     31  O4  UNL     1      30.937  -8.745 -37.214  0.00  0.00    +0.000 OA
ATOM     32  H6  UNL     1      31.660  -9.327 -36.817  0.00  0.00    +0.000 HD
ENDBRANCH  19  31
ENDBRANCH  11  20
ENDBRANCH   1  11
BRANCH   6  33
ATOM     33  O9  UNL     1      28.956  -9.585 -33.161  0.00  0.00    +0.000 OA
BRANCH  33  34
ATOM     34  C15 UNL     1      30.236  -9.687 -33.758  0.00  0.00    +0.000 C 
ATOM     35  O10 UNL     1      30.975 -10.754 -33.169  0.00  0.00    +0.000 OA
ATOM     36  C16 UNL     1      31.664 -10.336 -32.010  0.00  0.00    +0.000 C 
ATOM     37  C17 UNL     1      32.139 -11.568 -31.242  0.00  0.00    +0.000 C 
ATOM     38  C18 UNL     1      32.859  -9.442 -32.409  0.00  0.00    +0.000 C 
ATOM     39  C19 UNL     1      32.481  -8.489 -33.580  0.00  0.00    +0.000 C 
ATOM     40  C20 UNL     1      30.954  -8.309 -33.684  0.00  0.00    +0.000 C 
BRANCH  38  41
ATOM     41  O11 UNL     1      33.271  -8.691 -31.295  0.00  0.00    +0.000 OA
ATOM     42  H21 UNL     1      32.680  -7.889 -31.269  0.00  0.00    +0.000 HD
ENDBRANCH  38  41
BRANCH  39  43
ATOM     43  O12 UNL     1      33.015  -8.945 -34.800  0.00  0.00    +0.000 OA
ATOM     44  H23 UNL     1      32.699  -9.874 -34.950  0.00  0.00    +0.000 HD
ENDBRANCH  39  43
BRANCH  40  45
ATOM     45  O13 UNL     1      30.643  -7.528 -34.809  0.00  0.00    +0.000 OA
ATOM     46  H25 UNL     1      31.350  -6.834 -34.885  0.00  0.00    +0.000 HD
ENDBRANCH  40  45
ENDBRANCH  33  34
ENDBRANCH   6  33
TORSDOF 12
ENDMDL
MODEL 5
REMARK VINA RESULT:    -6.282      5.715      8.838
REMARK INTER + INTRA:         -10.704
REMARK INTER:                  -9.394
REMARK INTRA:                  -1.310
REMARK UNBOUND:                -1.301
REMARK  Name = resultss/4CJN/ligands/lig_327_t0.pdb
REMARK  14 active torsions:
REMARK  status: ('A' for Active; 'I' for Inactive)
REMARK    1  A    between atoms: C1_1  and  O1_2
REMARK    2  A    between atoms: O1_2  and  C2_3
REMARK    3  A    between atoms: C4_5  and  O2_6
REMARK    4  A    between atoms: C8_11  and  O4_12
REMARK    5  A    between atoms: C9_13  and  O5_14
REMARK    6  A    between atoms: O5_14  and  C10_15
REMARK    7  A    between atoms: C12_18  and  O7_19
REMARK    8  A    between atoms: C13_20  and  O8_21
REMARK    9  A    between atoms: C14_22  and  O9_23
REMARK   10  A    between atoms: O9_23  and  C15_24
REMARK   11  A    between atoms: C16_26  and  C17_27
REMARK   12  A    between atoms: C18_28  and  O11_29
REMARK   13  A    between atoms: C19_30  and  O12_31
REMARK   14  A    between atoms: C20_32  and  O13_33
REMARK                            x       y       z     vdW  Elec       q    Type
REMARK                         _______ _______ _______ _____ _____    ______ ____
ROOT
ATOM      1  C10 UNL     1      28.939  -9.545 -34.340  0.00  0.00    +0.000 C 
ATOM      2  O6  UNL     1      27.607 -10.011 -34.500  0.00  0.00    +0.000 OA
ATOM      3  C11 UNL     1      26.683  -8.938 -34.530  0.00  0.00    +0.000 C 
ATOM      4  C12 UNL     1      26.742  -8.066 -33.253  0.00  0.00    +0.000 C 
ATOM      5  C13 UNL     1      27.787  -8.607 -32.266  0.00  0.00    +0.000 C 
ATOM      6  C14 UNL     1      29.130  -8.784 -32.997  0.00  0.00    +0.000 C 
ENDROOT
BRANCH   4   7
ATOM      7  O7  UNL     1      25.481  -8.046 -32.627  0.00  0.00    +0.000 OA
ATOM      8  H11 UNL     1      24.921  -8.737 -33.068  0.00  0.00    +0.000 HD
ENDBRANCH   4   7
BRANCH   5   9
ATOM      9  O8  UNL     1      27.936  -7.702 -31.202  0.00  0.00    +0.000 OA
ATOM     10  H13 UNL     1      28.322  -8.212 -30.441  0.00  0.00    +0.000 HD
ENDBRANCH   5   9
BRANCH   1  11
ATOM     11  O5  UNL     1      29.331  -8.697 -35.424  0.00  0.00    +0.000 OA
BRANCH  11  20
ATOM     12  C2  UNL     1      32.657 -10.595 -43.342  0.00  0.00    +0.000 A 
ATOM     13  C3  UNL     1      31.288 -10.600 -43.652  0.00  0.00    +0.000 A 
ATOM     14  C4  UNL     1      30.324 -10.387 -42.655  0.00  0.00    +0.000 A 
ATOM     15  C5  UNL     1      30.730 -10.163 -41.318  0.00  0.00    +0.000 A 
ATOM     16  C6  UNL     1      29.817  -9.936 -40.264  0.00  0.00    +0.000 A 
ATOM     17  O3  UNL     1      28.581 -10.039 -40.480  0.00  0.00    +0.000 OA
ATOM     18  C7  UNL     1      30.300  -9.620 -38.967  0.00  0.00    +0.000 A 
ATOM     19  C8  UNL     1      29.464  -9.270 -37.860  0.00  0.00    +0.000 A 
ATOM     20  C9  UNL     1      30.047  -9.045 -36.586  0.00  0.00    +0.000 A 
ATOM     21  C21 UNL     1      31.432  -9.134 -36.437  0.00  0.00    +0.000 A 
ATOM     22  C22 UNL     1      32.253  -9.425 -37.518  0.00  0.00    +0.000 A 
ATOM     23  C23 UNL     1      31.704  -9.660 -38.775  0.00  0.00    +0.000 A 
ATOM     24  O14 UNL     1      32.526  -9.918 -39.784  0.00  0.00    +0.000 OA
ATOM     25  C24 UNL     1      32.108 -10.150 -41.019  0.00  0.00    +0.000 A 
ATOM     26  C25 UNL     1      33.053 -10.377 -42.023  0.00  0.00    +0.000 A 
BRANCH  12  28
ATOM     27  C1  UNL     1      33.392 -11.122 -45.672  0.00  0.00    +0.000 C 
ATOM     28  O1  UNL     1      33.651 -10.798 -44.311  0.00  0.00    +0.000 OA
ENDBRANCH  12  28
BRANCH  14  29
ATOM     29  O2  UNL     1      28.972 -10.384 -43.005  0.00  0.00    +0.000 OA
ATOM     30  H5  UNL     1      28.515  -9.557 -43.364  0.00  0.00    +0.000 HD
ENDBRANCH  14  29
BRANCH  19  31
ATOM     31  O4  UNL     1      28.087  -9.099 -38.006  0.00  0.00    +0.000 OA
ATOM     32  H6  UNL     1      27.595  -9.274 -38.870  0.00  0.00    +0.000 HD
ENDBRANCH  19  31
ENDBRANCH  11  20
ENDBRANCH   1  11
BRANCH   6  33
ATOM     33  O9  UNL     1      30.020  -9.508 -32.159  0.00  0.00    +0.000 OA
BRANCH  33  34
ATOM     34  C15 UNL     1      31.147  -9.972 -32.880  0.00  0.00    +0.000 C 
ATOM     35  O10 UNL     1      31.401 -11.341 -32.577  0.00  0.00    +0.000 OA
ATOM     36  C16 UNL     1      32.210 -11.481 -31.427  0.00  0.00    +0.000 C 
ATOM     37  C17 UNL     1      32.158 -12.933 -30.956  0.00  0.00    +0.000 C 
ATOM     38  C18 UNL     1      33.659 -11.061 -31.756  0.00  0.00    +0.000 C 
ATOM     39  C19 UNL     1      33.685  -9.811 -32.684  0.00  0.00    +0.000 C 
ATOM     40  C20 UNL     1      32.357  -9.032 -32.610  0.00  0.00    +0.000 C 
BRANCH  38  41
ATOM     41  O11 UNL     1      34.347 -10.785 -30.562  0.00  0.00    +0.000 OA
ATOM     42  H21 UNL     1      35.316 -10.794 -30.794  0.00  0.00    +0.000 HD
ENDBRANCH  38  41
BRANCH  39  43
ATOM     43  O12 UNL     1      33.982 -10.169 -34.013  0.00  0.00    +0.000 OA
ATOM     44  H23 UNL     1      34.560 -10.975 -33.996  0.00  0.00    +0.000 HD
ENDBRANCH  39  43
BRANCH  40  45
ATOM     45  O13 UNL     1      32.376  -7.973 -33.531  0.00  0.00    +0.000 OA
ATOM     46  H25 UNL     1      31.662  -8.154 -34.196  0.00  0.00    +0.000 HD
ENDBRANCH  40  45
ENDBRANCH  33  34
ENDBRANCH   6  33
TORSDOF 12
ENDMDL
MODEL 6
REMARK VINA RESULT:    -6.265      5.240      7.741
REMARK INTER + INTRA:         -10.679
REMARK INTER:                  -9.629
REMARK INTRA:                  -1.050
REMARK UNBOUND:                -1.301
REMARK  Name = resultss/4CJN/ligands/lig_327_t0.pdb
REMARK  14 active torsions:
REMARK  status: ('A' for Active; 'I' for Inactive)
REMARK    1  A    between atoms: C1_1  and  O1_2
REMARK    2  A    between atoms: O1_2  and  C2_3
REMARK    3  A    between atoms: C4_5  and  O2_6
REMARK    4  A    between atoms: C8_11  and  O4_12
REMARK    5  A    between atoms: C9_13  and  O5_14
REMARK    6  A    between atoms: O5_14  and  C10_15
REMARK    7  A    between atoms: C12_18  and  O7_19
REMARK    8  A    between atoms: C13_20  and  O8_21
REMARK    9  A    between atoms: C14_22  and  O9_23
REMARK   10  A    between atoms: O9_23  and  C15_24
REMARK   11  A    between atoms: C16_26  and  C17_27
REMARK   12  A    between atoms: C18_28  and  O11_29
REMARK   13  A    between atoms: C19_30  and  O12_31
REMARK   14  A    between atoms: C20_32  and  O13_33
REMARK                            x       y       z     vdW  Elec       q    Type
REMARK                         _______ _______ _______ _____ _____    ______ ____
ROOT
ATOM      1  C10 UNL     1      26.403  -8.798 -37.459  0.00  0.00    +0.000 C 
ATOM      2  O6  UNL     1      25.159  -9.036 -38.103  0.00  0.00    +0.000 OA
ATOM      3  C11 UNL     1      24.649  -7.855 -38.696  0.00  0.00    +0.000 C 
ATOM      4  C12 UNL     1      24.454  -6.711 -37.672  0.00  0.00    +0.000 C 
ATOM      5  C13 UNL     1      24.854  -7.164 -36.260  0.00  0.00    +0.000 C 
ATOM      6  C14 UNL     1      26.268  -7.767 -36.303  0.00  0.00    +0.000 C 
ENDROOT
BRANCH   4   7
ATOM      7  O7  UNL     1      23.108  -6.300 -37.663  0.00  0.00    +0.000 OA
ATOM      8  H11 UNL     1      22.660  -6.767 -36.912  0.00  0.00    +0.000 HD
ENDBRANCH   4   7
BRANCH   5   9
ATOM      9  O8  UNL     1      24.828  -6.060 -35.392  0.00  0.00    +0.000 OA
ATOM     10  H13 UNL     1      24.335  -5.335 -35.861  0.00  0.00    +0.000 HD
ENDBRANCH   5   9
BRANCH   1  11
ATOM     11  O5  UNL     1      27.394  -8.344 -38.386  0.00  0.00    +0.000 OA
BRANCH  11  20
ATOM     12  C2  UNL     1      32.933 -12.497 -43.810  0.00  0.00    +0.000 A 
ATOM     13  C3  UNL     1      33.792 -11.509 -43.304  0.00  0.00    +0.000 A 
ATOM     14  C4  UNL     1      33.323 -10.541 -42.403  0.00  0.00    +0.000 A 
ATOM     15  C5  UNL     1      31.969 -10.555 -41.995  0.00  0.00    +0.000 A 
ATOM     16  C6  UNL     1      31.428  -9.617 -41.088  0.00  0.00    +0.000 A 
ATOM     17  O3  UNL     1      32.137  -8.654 -40.695  0.00  0.00    +0.000 OA
ATOM     18  C7  UNL     1      30.086  -9.753 -40.647  0.00  0.00    +0.000 A 
ATOM     19  C8  UNL     1      29.476  -8.923 -39.653  0.00  0.00    +0.000 A 
ATOM     20  C9  UNL     1      28.103  -9.098 -39.341  0.00  0.00    +0.000 A 
ATOM     21  C21 UNL     1      27.373 -10.100 -39.982  0.00  0.00    +0.000 A 
ATOM     22  C22 UNL     1      27.971 -10.940 -40.911  0.00  0.00    +0.000 A 
ATOM     23  C23 UNL     1      29.313 -10.783 -41.242  0.00  0.00    +0.000 A 
ATOM     24  O14 UNL     1      29.849 -11.618 -42.123  0.00  0.00    +0.000 OA
ATOM     25  C24 UNL     1      31.116 -11.558 -42.502  0.00  0.00    +0.000 A 
ATOM     26  C25 UNL     1      31.597 -12.506 -43.408  0.00  0.00    +0.000 A 
BRANCH  12  28
ATOM     27  C1  UNL     1      32.762 -13.744 -45.970  0.00  0.00    +0.000 C 
ATOM     28  O1  UNL     1      33.365 -13.486 -44.707  0.00  0.00    +0.000 OA
ENDBRANCH  12  28
BRANCH  14  29
ATOM     29  O2  UNL     1      34.212  -9.583 -41.910  0.00  0.00    +0.000 OA
ATOM     30  H5  UNL     1      34.446  -8.752 -42.434  0.00  0.00    +0.000 HD
ENDBRANCH  14  29
BRANCH  19  31
ATOM     31  O4  UNL     1      30.208  -7.968 -38.947  0.00  0.00    +0.000 OA
ATOM     32  H6  UNL     1      30.545  -7.111 -39.359  0.00  0.00    +0.000 HD
ENDBRANCH  19  31
ENDBRANCH  11  20
ENDBRANCH   1  11
BRANCH   6  33
ATOM     33  O9  UNL     1      26.537  -8.403 -35.061  0.00  0.00    +0.000 OA
BRANCH  33  34
ATOM     34  C15 UNL     1      27.628  -7.796 -34.393  0.00  0.00    +0.000 C 
ATOM     35  O10 UNL     1      28.835  -8.005 -35.122  0.00  0.00    +0.000 OA
ATOM     36  C16 UNL     1      29.445  -9.233 -34.782  0.00  0.00    +0.000 C 
ATOM     37  C17 UNL     1      30.516  -9.560 -35.821  0.00  0.00    +0.000 C 
ATOM     38  C18 UNL     1      30.061  -9.133 -33.369  0.00  0.00    +0.000 C 
ATOM     39  C19 UNL     1      29.136  -8.333 -32.407  0.00  0.00    +0.000 C 
ATOM     40  C20 UNL     1      27.684  -8.304 -32.924  0.00  0.00    +0.000 C 
BRANCH  38  41
ATOM     41  O11 UNL     1      30.275 -10.426 -32.862  0.00  0.00    +0.000 OA
ATOM     42  H21 UNL     1      31.129 -10.743 -33.268  0.00  0.00    +0.000 HD
ENDBRANCH  38  41
BRANCH  39  43
ATOM     43  O12 UNL     1      29.621  -7.027 -32.203  0.00  0.00    +0.000 OA
ATOM     44  H23 UNL     1      30.490  -6.941 -32.673  0.00  0.00    +0.000 HD
ENDBRANCH  39  43
BRANCH  40  45
ATOM     45  O13 UNL     1      26.899  -7.492 -32.089  0.00  0.00    +0.000 OA
ATOM     46  H25 UNL     1      27.520  -7.029 -31.468  0.00  0.00    +0.000 HD
ENDBRANCH  40  45
ENDBRANCH  33  34
ENDBRANCH   6  33
TORSDOF 12
ENDMDL
MODEL 7
REMARK VINA RESULT:    -6.105      3.374     10.267
REMARK INTER + INTRA:         -10.440
REMARK INTER:                  -9.244
REMARK INTRA:                  -1.196
REMARK UNBOUND:                -1.301
REMARK  Name = resultss/4CJN/ligands/lig_327_t0.pdb
REMARK  14 active torsions:
REMARK  status: ('A' for Active; 'I' for Inactive)
REMARK    1  A    between atoms: C1_1  and  O1_2
REMARK    2  A    between atoms: O1_2  and  C2_3
REMARK    3  A    between atoms: C4_5  and  O2_6
REMARK    4  A    between atoms: C8_11  and  O4_12
REMARK    5  A    between atoms: C9_13  and  O5_14
REMARK    6  A    between atoms: O5_14  and  C10_15
REMARK    7  A    between atoms: C12_18  and  O7_19
REMARK    8  A    between atoms: C13_20  and  O8_21
REMARK    9  A    between atoms: C14_22  and  O9_23
REMARK   10  A    between atoms: O9_23  and  C15_24
REMARK   11  A    between atoms: C16_26  and  C17_27
REMARK   12  A    between atoms: C18_28  and  O11_29
REMARK   13  A    between atoms: C19_30  and  O12_31
REMARK   14  A    between atoms: C20_32  and  O13_33
REMARK                            x       y       z     vdW  Elec       q    Type
REMARK                         _______ _______ _______ _____ _____    ______ ____
ROOT
ATOM      1  C10 UNL     1      25.698  -8.000 -40.349  0.00  0.00    +0.000 C 
ATOM      2  O6  UNL     1      25.304  -6.776 -40.954  0.00  0.00    +0.000 OA
ATOM      3  C11 UNL     1      23.900  -6.600 -40.898  0.00  0.00    +0.000 C 
ATOM      4  C12 UNL     1      23.128  -7.752 -41.584  0.00  0.00    +0.000 C 
ATOM      5  C13 UNL     1      24.096  -8.790 -42.169  0.00  0.00    +0.000 C 
ATOM      6  C14 UNL     1      25.087  -9.230 -41.078  0.00  0.00    +0.000 C 
ENDROOT
BRANCH   4   7
ATOM      7  O7  UNL     1      22.320  -7.239 -42.616  0.00  0.00    +0.000 OA
ATOM      8  H11 UNL     1      21.695  -7.959 -42.890  0.00  0.00    +0.000 HD
ENDBRANCH   4   7
BRANCH   5   9
ATOM      9  O8  UNL     1      23.368  -9.899 -42.632  0.00  0.00    +0.000 OA
ATOM     10  H13 UNL     1      22.512  -9.914 -42.126  0.00  0.00    +0.000 HD
ENDBRANCH   5   9
BRANCH   1  11
ATOM     11  O5  UNL     1      25.335  -8.041 -38.965  0.00  0.00    +0.000 OA
BRANCH  11  20
ATOM     12  C2  UNL     1      31.260  -9.995 -32.766  0.00  0.00    +0.000 A 
ATOM     13  C3  UNL     1      32.122  -9.620 -33.809  0.00  0.00    +0.000 A 
ATOM     14  C4  UNL     1      31.615  -9.258 -35.066  0.00  0.00    +0.000 A 
ATOM     15  C5  UNL     1      30.219  -9.270 -35.293  0.00  0.00    +0.000 A 
ATOM     16  C6  UNL     1      29.637  -8.914 -36.530  0.00  0.00    +0.000 A 
ATOM     17  O3  UNL     1      30.378  -8.675 -37.519  0.00  0.00    +0.000 OA
ATOM     18  C7  UNL     1      28.224  -8.852 -36.654  0.00  0.00    +0.000 A 
ATOM     19  C8  UNL     1      27.538  -8.402 -37.827  0.00  0.00    +0.000 A 
ATOM     20  C9  UNL     1      26.120  -8.453 -37.871  0.00  0.00    +0.000 A 
ATOM     21  C21 UNL     1      25.412  -8.908 -36.758  0.00  0.00    +0.000 A 
ATOM     22  C22 UNL     1      26.071  -9.300 -35.600  0.00  0.00    +0.000 A 
ATOM     23  C23 UNL     1      27.460  -9.269 -35.535  0.00  0.00    +0.000 A 
ATOM     24  O14 UNL     1      28.047  -9.637 -34.404  0.00  0.00    +0.000 OA
ATOM     25  C24 UNL     1      29.360  -9.639 -34.236  0.00  0.00    +0.000 A 
ATOM     26  C25 UNL     1      29.884 -10.008 -32.994  0.00  0.00    +0.000 A 
BRANCH  12  28
ATOM     27  C1  UNL     1      32.220 -11.648 -31.155  0.00  0.00    +0.000 C 
ATOM     28  O1  UNL     1      31.728 -10.357 -31.494  0.00  0.00    +0.000 OA
ENDBRANCH  12  28
BRANCH  14  29
ATOM     29  O2  UNL     1      32.504  -8.876 -36.074  0.00  0.00    +0.000 OA
ATOM     30  H5  UNL     1      32.897  -7.946 -36.113  0.00  0.00    +0.000 HD
ENDBRANCH  14  29
BRANCH  19  31
ATOM     31  O4  UNL     1      28.224  -7.871 -38.919  0.00  0.00    +0.000 OA
ATOM     32  H6  UNL     1      27.772  -7.606 -39.782  0.00  0.00    +0.000 HD
ENDBRANCH  19  31
ENDBRANCH  11  20
ENDBRANCH   1  11
BRANCH   6  33
ATOM     33  O9  UNL     1      26.125  -9.995 -41.677  0.00  0.00    +0.000 OA
BRANCH  33  34
ATOM     34  C15 UNL     1      27.393  -9.647 -41.152  0.00  0.00    +0.000 C 
ATOM     35  O10 UNL     1      28.031  -8.687 -41.990  0.00  0.00    +0.000 OA
ATOM     36  C16 UNL     1      28.750  -9.303 -43.038  0.00  0.00    +0.000 C 
ATOM     37  C17 UNL     1      29.109  -8.248 -44.083  0.00  0.00    +0.000 C 
ATOM     38  C18 UNL     1      30.021  -9.974 -42.473  0.00  0.00    +0.000 C 
ATOM     39  C19 UNL     1      29.736 -10.656 -41.104  0.00  0.00    +0.000 C 
ATOM     40  C20 UNL     1      28.231 -10.937 -40.923  0.00  0.00    +0.000 C 
BRANCH  38  41
ATOM     41  O11 UNL     1      30.494 -10.925 -43.392  0.00  0.00    +0.000 OA
ATOM     42  H21 UNL     1      30.879 -11.666 -42.848  0.00  0.00    +0.000 HD
ENDBRANCH  38  41
BRANCH  39  43
ATOM     43  O12 UNL     1      30.232  -9.884 -40.036  0.00  0.00    +0.000 OA
ATOM     44  H23 UNL     1      31.134  -9.554 -40.284  0.00  0.00    +0.000 HD
ENDBRANCH  39  43
BRANCH  40  45
ATOM     45  O13 UNL     1      27.996 -11.459 -39.640  0.00  0.00    +0.000 OA
ATOM     46  H25 UNL     1      27.012 -11.481 -39.512  0.00  0.00    +0.000 HD
ENDBRANCH  40  45
ENDBRANCH  33  34
ENDBRANCH   6  33
TORSDOF 12
ENDMDL
MODEL 8
REMARK VINA RESULT:    -6.096      2.302     10.725
REMARK INTER + INTRA:         -10.425
REMARK INTER:                  -9.405
REMARK INTRA:                  -1.020
REMARK UNBOUND:                -1.301
REMARK  Name = resultss/4CJN/ligands/lig_327_t0.pdb
REMARK  14 active torsions:
REMARK  status: ('A' for Active; 'I' for Inactive)
REMARK    1  A    between atoms: C1_1  and  O1_2
REMARK    2  A    between atoms: O1_2  and  C2_3
REMARK    3  A    between atoms: C4_5  and  O2_6
REMARK    4  A    between atoms: C8_11  and  O4_12
REMARK    5  A    between atoms: C9_13  and  O5_14
REMARK    6  A    between atoms: O5_14  and  C10_15
REMARK    7  A    between atoms: C12_18  and  O7_19
REMARK    8  A    between atoms: C13_20  and  O8_21
REMARK    9  A    between atoms: C14_22  and  O9_23
REMARK   10  A    between atoms: O9_23  and  C15_24
REMARK   11  A    between atoms: C16_26  and  C17_27
REMARK   12  A    between atoms: C18_28  and  O11_29
REMARK   13  A    between atoms: C19_30  and  O12_31
REMARK   14  A    between atoms: C20_32  and  O13_33
REMARK                            x       y       z     vdW  Elec       q    Type
REMARK                         _______ _______ _______ _____ _____    ______ ____
ROOT
ATOM      1  C10 UNL     1      24.942  -7.789 -41.442  0.00  0.00    +0.000 C 
ATOM      2  O6  UNL     1      24.580  -6.467 -41.068  0.00  0.00    +0.000 OA
ATOM      3  C11 UNL     1      23.238  -6.406 -40.617  0.00  0.00    +0.000 C 
ATOM      4  C12 UNL     1      22.230  -6.902 -41.681  0.00  0.00    +0.000 C 
ATOM      5  C13 UNL     1      22.953  -7.322 -42.969  0.00  0.00    +0.000 C 
ATOM      6  C14 UNL     1      24.074  -8.315 -42.621  0.00  0.00    +0.000 C 
ENDROOT
BRANCH   4   7
ATOM      7  O7  UNL     1      21.306  -5.883 -41.979  0.00  0.00    +0.000 OA
ATOM      8  H11 UNL     1      21.478  -5.134 -41.351  0.00  0.00    +0.000 HD
ENDBRANCH   4   7
BRANCH   5   9
ATOM      9  O8  UNL     1      22.034  -7.923 -43.845  0.00  0.00    +0.000 OA
ATOM     10  H13 UNL     1      21.193  -7.396 -43.788  0.00  0.00    +0.000 HD
ENDBRANCH   5   9
BRANCH   1  11
ATOM     11  O5  UNL     1      24.839  -8.692 -40.337  0.00  0.00    +0.000 OA
BRANCH  11  20
ATOM     12  C2  UNL     1      29.558  -9.572 -32.968  0.00  0.00    +0.000 A 
ATOM     13  C3  UNL     1      28.480  -8.822 -32.471  0.00  0.00    +0.000 A 
ATOM     14  C4  UNL     1      27.456  -8.385 -33.324  0.00  0.00    +0.000 A 
ATOM     15  C5  UNL     1      27.503  -8.699 -34.703  0.00  0.00    +0.000 A 
ATOM     16  C6  UNL     1      26.506  -8.297 -35.619  0.00  0.00    +0.000 A 
ATOM     17  O3  UNL     1      25.581  -7.535 -35.234  0.00  0.00    +0.000 OA
ATOM     18  C7  UNL     1      26.569  -8.734 -36.968  0.00  0.00    +0.000 A 
ATOM     19  C8  UNL     1      25.558  -8.473 -37.947  0.00  0.00    +0.000 A 
ATOM     20  C9  UNL     1      25.757  -8.892 -39.288  0.00  0.00    +0.000 A 
ATOM     21  C21 UNL     1      26.920  -9.584 -39.627  0.00  0.00    +0.000 A 
ATOM     22  C22 UNL     1      27.882  -9.884 -38.672  0.00  0.00    +0.000 A 
ATOM     23  C23 UNL     1      27.715  -9.475 -37.353  0.00  0.00    +0.000 A 
ATOM     24  O14 UNL     1      28.651  -9.796 -36.469  0.00  0.00    +0.000 OA
ATOM     25  C24 UNL     1      28.585  -9.461 -35.190  0.00  0.00    +0.000 A 
ATOM     26  C25 UNL     1      29.604  -9.878 -34.328  0.00  0.00    +0.000 A 
BRANCH  12  28
ATOM     27  C1  UNL     1      31.982  -9.884 -32.442  0.00  0.00    +0.000 C 
ATOM     28  O1  UNL     1      30.598 -10.033 -32.147  0.00  0.00    +0.000 OA
ENDBRANCH  12  28
BRANCH  14  29
ATOM     29  O2  UNL     1      26.391  -7.654 -32.790  0.00  0.00    +0.000 OA
ATOM     30  H5  UNL     1      25.518  -7.542 -33.287  0.00  0.00    +0.000 HD
ENDBRANCH  14  29
BRANCH  19  31
ATOM     31  O4  UNL     1      24.355  -7.852 -37.611  0.00  0.00    +0.000 OA
ATOM     32  H6  UNL     1      23.482  -8.349 -37.516  0.00  0.00    +0.000 HD
ENDBRANCH  19  31
ENDBRANCH  11  20
ENDBRANCH   1  11
BRANCH   6  33
ATOM     33  O9  UNL     1      24.892  -8.510 -43.767  0.00  0.00    +0.000 OA
BRANCH  33  34
ATOM     34  C15 UNL     1      25.800  -7.437 -43.943  0.00  0.00    +0.000 C 
ATOM     35  O10 UNL     1      25.316  -6.536 -44.934  0.00  0.00    +0.000 OA
ATOM     36  C16 UNL     1      25.696  -6.934 -46.235  0.00  0.00    +0.000 C 
ATOM     37  C17 UNL     1      24.874  -6.150 -47.255  0.00  0.00    +0.000 C 
ATOM     38  C18 UNL     1      27.207  -6.683 -46.435  0.00  0.00    +0.000 C 
ATOM     39  C19 UNL     1      28.011  -7.041 -45.151  0.00  0.00    +0.000 C 
ATOM     40  C20 UNL     1      27.218  -8.003 -44.245  0.00  0.00    +0.000 C 
BRANCH  38  41
ATOM     41  O11 UNL     1      27.667  -7.450 -47.518  0.00  0.00    +0.000 OA
ATOM     42  H21 UNL     1      27.032  -7.279 -48.266  0.00  0.00    +0.000 HD
ENDBRANCH  38  41
BRANCH  39  43
ATOM     43  O12 UNL     1      28.386  -5.883 -44.444  0.00  0.00    +0.000 OA
ATOM     44  H23 UNL     1      27.562  -5.390 -44.196  0.00  0.00    +0.000 HD
ENDBRANCH  39  43
BRANCH  40  45
ATOM     45  O13 UNL     1      27.926  -8.225 -43.053  0.00  0.00    +0.000 OA
ATOM     46  H25 UNL     1      27.263  -8.509 -42.370  0.00  0.00    +0.000 HD
ENDBRANCH  40  45
ENDBRANCH  33  34
ENDBRANCH   6  33
TORSDOF 12
ENDMDL
MODEL 9
REMARK VINA RESULT:    -6.016      3.127      6.582
REMARK INTER + INTRA:         -10.307
REMARK INTER:                  -8.750
REMARK INTRA:                  -1.557
REMARK UNBOUND:                -1.301
REMARK  Name = resultss/4CJN/ligands/lig_327_t0.pdb
REMARK  14 active torsions:
REMARK  status: ('A' for Active; 'I' for Inactive)
REMARK    1  A    between atoms: C1_1  and  O1_2
REMARK    2  A    between atoms: O1_2  and  C2_3
REMARK    3  A    between atoms: C4_5  and  O2_6
REMARK    4  A    between atoms: C8_11  and  O4_12
REMARK    5  A    between atoms: C9_13  and  O5_14
REMARK    6  A    between atoms: O5_14  and  C10_15
REMARK    7  A    between atoms: C12_18  and  O7_19
REMARK    8  A    between atoms: C13_20  and  O8_21
REMARK    9  A    between atoms: C14_22  and  O9_23
REMARK   10  A    between atoms: O9_23  and  C15_24
REMARK   11  A    between atoms: C16_26  and  C17_27
REMARK   12  A    between atoms: C18_28  and  O11_29
REMARK   13  A    between atoms: C19_30  and  O12_31
REMARK   14  A    between atoms: C20_32  and  O13_33
REMARK                            x       y       z     vdW  Elec       q    Type
REMARK                         _______ _______ _______ _____ _____    ______ ____
ROOT
ATOM      1  C10 UNL     1      26.449  -9.549 -34.639  0.00  0.00    +0.000 C 
ATOM      2  O6  UNL     1      25.623  -9.869 -33.528  0.00  0.00    +0.000 OA
ATOM      3  C11 UNL     1      24.396  -9.165 -33.577  0.00  0.00    +0.000 C 
ATOM      4  C12 UNL     1      24.591  -7.630 -33.610  0.00  0.00    +0.000 C 
ATOM      5  C13 UNL     1      26.082  -7.265 -33.566  0.00  0.00    +0.000 C 
ATOM      6  C14 UNL     1      26.827  -8.041 -34.666  0.00  0.00    +0.000 C 
ENDROOT
BRANCH   4   7
ATOM      7  O7  UNL     1      23.936  -7.039 -32.513  0.00  0.00    +0.000 OA
ATOM      8  H11 UNL     1      22.982  -7.305 -32.559  0.00  0.00    +0.000 HD
ENDBRANCH   4   7
BRANCH   5   9
ATOM      9  O8  UNL     1      26.230  -5.883 -33.769  0.00  0.00    +0.000 OA
ATOM     10  H13 UNL     1      27.160  -5.736 -34.088  0.00  0.00    +0.000 HD
ENDBRANCH   5   9
BRANCH   1  11
ATOM     11  O5  UNL     1      25.823  -9.903 -35.877  0.00  0.00    +0.000 OA
BRANCH  11  20
ATOM     12  C2  UNL     1      28.150  -7.675 -44.060  0.00  0.00    +0.000 A 
ATOM     13  C3  UNL     1      29.138  -8.634 -43.785  0.00  0.00    +0.000 A 
ATOM     14  C4  UNL     1      29.204  -9.258 -42.530  0.00  0.00    +0.000 A 
ATOM     15  C5  UNL     1      28.268  -8.921 -41.525  0.00  0.00    +0.000 A 
ATOM     16  C6  UNL     1      28.271  -9.511 -40.241  0.00  0.00    +0.000 A 
ATOM     17  O3  UNL     1      29.202 -10.295 -39.920  0.00  0.00    +0.000 OA
ATOM     18  C7  UNL     1      27.240  -9.197 -39.317  0.00  0.00    +0.000 A 
ATOM     19  C8  UNL     1      27.091  -9.817 -38.036  0.00  0.00    +0.000 A 
ATOM     20  C9  UNL     1      26.067  -9.374 -37.158  0.00  0.00    +0.000 A 
ATOM     21  C21 UNL     1      25.197  -8.363 -37.570  0.00  0.00    +0.000 A 
ATOM     22  C22 UNL     1      25.306  -7.793 -38.831  0.00  0.00    +0.000 A 
ATOM     23  C23 UNL     1      26.307  -8.202 -39.705  0.00  0.00    +0.000 A 
ATOM     24  O14 UNL     1      26.365  -7.642 -40.907  0.00  0.00    +0.000 OA
ATOM     25  C24 UNL     1      27.274  -7.963 -41.814  0.00  0.00    +0.000 A 
ATOM     26  C25 UNL     1      27.230  -7.343 -43.065  0.00  0.00    +0.000 A 
BRANCH  12  28
ATOM     27  C1  UNL     1      26.863  -6.997 -46.092  0.00  0.00    +0.000 C 
ATOM     28  O1  UNL     1      28.046  -7.034 -45.303  0.00  0.00    +0.000 OA
ENDBRANCH  12  28
BRANCH  14  29
ATOM     29  O2  UNL     1      30.192 -10.218 -42.299  0.00  0.00    +0.000 OA
ATOM     30  H5  UNL     1      29.999 -11.070 -41.789  0.00  0.00    +0.000 HD
ENDBRANCH  14  29
BRANCH  19  31
ATOM     31  O4  UNL     1      27.900 -10.881 -37.637  0.00  0.00    +0.000 OA
ATOM     32  H6  UNL     1      27.556 -11.821 -37.506  0.00  0.00    +0.000 HD
ENDBRANCH  19  31
ENDBRANCH  11  20
ENDBRANCH   1  11
BRANCH   6  33
ATOM     33  O9  UNL     1      28.227  -7.895 -34.467  0.00  0.00    +0.000 OA
BRANCH  33  34
ATOM     34  C15 UNL     1      28.961  -8.790 -35.283  0.00  0.00    +0.000 C 
ATOM     35  O10 UNL     1      29.576  -9.798 -34.486  0.00  0.00    +0.000 OA
ATOM     36  C16 UNL     1      30.833  -9.380 -33.993  0.00  0.00    +0.000 C 
ATOM     37  C17 UNL     1      31.274 -10.335 -32.885  0.00  0.00    +0.000 C 
ATOM     38  C18 UNL     1      31.862  -9.359 -35.144  0.00  0.00    +0.000 C 
ATOM     39  C19 UNL     1      31.226  -8.817 -36.457  0.00  0.00    +0.000 C 
ATOM     40  C20 UNL     1      29.961  -7.986 -36.164  0.00  0.00    +0.000 C 
BRANCH  38  41
ATOM     41  O11 UNL     1      32.956  -8.558 -34.776  0.00  0.00    +0.000 OA
ATOM     42  H21 UNL     1      32.590  -7.643 -34.627  0.00  0.00    +0.000 HD
ENDBRANCH  38  41
BRANCH  39  43
ATOM     43  O12 UNL     1      30.939  -9.863 -37.355  0.00  0.00    +0.000 OA
ATOM     44  H23 UNL     1      30.439  -9.484 -38.123  0.00  0.00    +0.000 HD
ENDBRANCH  39  43
BRANCH  40  45
ATOM     45  O13 UNL     1      29.357  -7.598 -37.370  0.00  0.00    +0.000 OA
ATOM     46  H25 UNL     1      29.531  -6.627 -37.483  0.00  0.00    +0.000 HD
ENDBRANCH  40  45
ENDBRANCH  33  34
ENDBRANCH   6  33
TORSDOF 12
ENDMDL
