MODEL 1
REMARK VINA RESULT:    -6.083      0.000      0.000
REMARK INTER + INTRA:          -8.459
REMARK INTER:                  -7.861
REMARK INTRA:                  -0.598
REMARK UNBOUND:                -0.598
REMARK  Name = resultss/4CJN/ligands/lig_445_t0.pdb
REMARK  5 active torsions:
REMARK  status: ('A' for Active; 'I' for Inactive)
REMARK    1  A    between atoms: S1_2  and  N1_4
REMARK    2  A    between atoms: S1_2  and  C11_16
REMARK    3  A    between atoms: N1_4  and  C1_5
REMARK    4  A    between atoms: C1_5  and  C2_6
REMARK    5  A    between atoms: C2_6  and  C3_7
REMARK                            x       y       z     vdW  Elec       q    Type
REMARK                         _______ _______ _______ _____ _____    ______ ____
ROOT
ATOM      1  N1  UNL     1      24.284  -8.536 -38.714  0.00  0.00    +0.000 NA
ATOM      2  H1  UNL     1      23.358  -8.289 -39.135  0.00  0.00    +0.000 HD
ENDROOT
BRANCH   1   4
ATOM      3  O1  UNL     1      23.433  -6.432 -37.365  0.00  0.00    +0.000 OA
ATOM      4  S1  UNL     1      24.583  -7.396 -37.435  0.00  0.00    +0.000 S 
ATOM      5  O2  UNL     1      25.848  -6.638 -37.731  0.00  0.00    +0.000 OA
BRANCH   4   6
ATOM      6  C11 UNL     1      24.726  -8.226 -35.879  0.00  0.00    +0.000 A 
ATOM      7  C12 UNL     1      23.819  -7.925 -34.849  0.00  0.00    +0.000 A 
ATOM      8  C13 UNL     1      23.912  -8.566 -33.611  0.00  0.00    +0.000 A 
ATOM      9  F1  UNL     1      23.027  -8.272 -32.627  0.00  0.00    +0.000 F 
ATOM     10  C14 UNL     1      24.918  -9.507 -33.385  0.00  0.00    +0.000 A 
ATOM     11  C15 UNL     1      25.837  -9.803 -34.394  0.00  0.00    +0.000 A 
ATOM     12  C16 UNL     1      25.753  -9.166 -35.638  0.00  0.00    +0.000 A 
ATOM     13 CL1  UNL     1      26.965  -9.558 -36.853  0.00  0.00    +0.000 Cl
ENDBRANCH   4   6
ENDBRANCH   1   4
BRANCH   1  14
ATOM     14  C1  UNL     1      25.305  -8.402 -39.755  0.00  0.00    +0.000 C 
BRANCH  14  15
ATOM     15  C2  UNL     1      25.235  -9.596 -40.706  0.00  0.00    +0.000 C 
BRANCH  15  16
ATOM     16  C3  UNL     1      26.584 -10.234 -40.854  0.00  0.00    +0.000 A 
ATOM     17  C4  UNL     1      27.097 -11.275 -40.085  0.00  0.00    +0.000 A 
ATOM     18  N2  UNL     1      28.371 -11.545 -40.449  0.00  0.00    +0.000 N 
ATOM     19  C5  UNL     1      28.671 -10.675 -41.429  0.00  0.00    +0.000 A 
ATOM     20  C6  UNL     1      29.881 -10.552 -42.109  0.00  0.00    +0.000 A 
ATOM     21  C7  UNL     1      29.985  -9.550 -43.092  0.00  0.00    +0.000 A 
ATOM     22  C8  UNL     1      28.889  -8.702 -43.368  0.00  0.00    +0.000 A 
ATOM     23  C9  UNL     1      27.679  -8.850 -42.665  0.00  0.00    +0.000 A 
ATOM     24  C10 UNL     1      27.606  -9.854 -41.701  0.00  0.00    +0.000 A 
ATOM     25  H7  UNL     1      28.997 -12.273 -40.038  0.00  0.00    +0.000 HD
ENDBRANCH  15  16
ENDBRANCH  14  15
ENDBRANCH   1  14
TORSDOF 5
ENDMDL
MODEL 2
REMARK VINA RESULT:    -5.975      2.236      2.904
REMARK INTER + INTRA:          -8.319
REMARK INTER:                  -7.843
REMARK INTRA:                  -0.476
REMARK UNBOUND:                -0.598
REMARK  Name = resultss/4CJN/ligands/lig_445_t0.pdb
REMARK  5 active torsions:
REMARK  status: ('A' for Active; 'I' for Inactive)
REMARK    1  A    between atoms: S1_2  and  N1_4
REMARK    2  A    between atoms: S1_2  and  C11_16
REMARK    3  A    between atoms: N1_4  and  C1_5
REMARK    4  A    between atoms: C1_5  and  C2_6
REMARK    5  A    between atoms: C2_6  and  C3_7
REMARK                            x       y       z     vdW  Elec       q    Type
REMARK                         _______ _______ _______ _____ _____    ______ ____
ROOT
ATOM      1  N1  UNL     1      27.262 -10.288 -36.301  0.00  0.00    +0.000 NA
ATOM      2  H1  UNL     1      26.300 -10.503 -36.654  0.00  0.00    +0.000 HD
ENDROOT
BRANCH   1   4
ATOM      3  O1  UNL     1      27.697  -7.755 -35.699  0.00  0.00    +0.000 OA
ATOM      4  S1  UNL     1      27.100  -9.011 -35.132  0.00  0.00    +0.000 S 
ATOM      5  O2  UNL     1      27.839  -9.389 -33.877  0.00  0.00    +0.000 OA
BRANCH   4   6
ATOM      6  C11 UNL     1      25.395  -8.715 -34.762  0.00  0.00    +0.000 A 
ATOM      7  C12 UNL     1      24.893  -9.056 -33.494  0.00  0.00    +0.000 A 
ATOM      8  C13 UNL     1      23.551  -8.833 -33.179  0.00  0.00    +0.000 A 
ATOM      9  F1  UNL     1      23.079  -9.160 -31.950  0.00  0.00    +0.000 F 
ATOM     10  C14 UNL     1      22.693  -8.276 -34.128  0.00  0.00    +0.000 A 
ATOM     11  C15 UNL     1      23.174  -7.948 -35.398  0.00  0.00    +0.000 A 
ATOM     12  C16 UNL     1      24.517  -8.168 -35.724  0.00  0.00    +0.000 A 
ATOM     13 CL1  UNL     1      25.050  -7.767 -37.353  0.00  0.00    +0.000 Cl
ENDBRANCH   4   6
ENDBRANCH   1   4
BRANCH   1  14
ATOM     14  C1  UNL     1      28.069  -9.831 -37.434  0.00  0.00    +0.000 C 
BRANCH  14  15
ATOM     15  C2  UNL     1      27.659 -10.585 -38.699  0.00  0.00    +0.000 C 
BRANCH  15  16
ATOM     16  C3  UNL     1      27.818  -9.712 -39.908  0.00  0.00    +0.000 A 
ATOM     17  C4  UNL     1      27.076  -8.574 -40.211  0.00  0.00    +0.000 A 
ATOM     18  N2  UNL     1      27.441  -8.081 -41.417  0.00  0.00    +0.000 N 
ATOM     19  C5  UNL     1      28.394  -8.907 -41.882  0.00  0.00    +0.000 A 
ATOM     20  C6  UNL     1      29.065  -8.821 -43.102  0.00  0.00    +0.000 A 
ATOM     21  C7  UNL     1      30.019  -9.812 -43.400  0.00  0.00    +0.000 A 
ATOM     22  C8  UNL     1      30.276 -10.856 -42.483  0.00  0.00    +0.000 A 
ATOM     23  C9  UNL     1      29.584 -10.917 -41.259  0.00  0.00    +0.000 A 
ATOM     24  C10 UNL     1      28.648  -9.917 -40.992  0.00  0.00    +0.000 A 
ATOM     25  H7  UNL     1      27.047  -7.240 -41.893  0.00  0.00    +0.000 HD
ENDBRANCH  15  16
ENDBRANCH  14  15
ENDBRANCH   1  14
TORSDOF 5
ENDMDL
MODEL 3
REMARK VINA RESULT:    -5.953      2.140      3.028
REMARK INTER + INTRA:          -8.291
REMARK INTER:                  -7.932
REMARK INTRA:                  -0.359
REMARK UNBOUND:                -0.598
REMARK  Name = resultss/4CJN/ligands/lig_445_t0.pdb
REMARK  5 active torsions:
REMARK  status: ('A' for Active; 'I' for Inactive)
REMARK    1  A    between atoms: S1_2  and  N1_4
REMARK    2  A    between atoms: S1_2  and  C11_16
REMARK    3  A    between atoms: N1_4  and  C1_5
REMARK    4  A    between atoms: C1_5  and  C2_6
REMARK    5  A    between atoms: C2_6  and  C3_7
REMARK                            x       y       z     vdW  Elec       q    Type
REMARK                         _______ _______ _______ _____ _____    ______ ____
ROOT
ATOM      1  N1  UNL     1      27.278 -10.046 -36.131  0.00  0.00    +0.000 NA
ATOM      2  H1  UNL     1      26.365 -10.549 -36.229  0.00  0.00    +0.000 HD
ENDROOT
BRANCH   1   4
ATOM      3  O1  UNL     1      27.431  -7.430 -35.807  0.00  0.00    +0.000 OA
ATOM      4  S1  UNL     1      26.996  -8.679 -35.093  0.00  0.00    +0.000 S 
ATOM      5  O2  UNL     1      27.802  -8.837 -33.833  0.00  0.00    +0.000 OA
BRANCH   4   6
ATOM      6  C11 UNL     1      25.277  -8.538 -34.697  0.00  0.00    +0.000 A 
ATOM      7  C12 UNL     1      24.825  -8.938 -33.427  0.00  0.00    +0.000 A 
ATOM      8  C13 UNL     1      23.473  -8.837 -33.092  0.00  0.00    +0.000 A 
ATOM      9  F1  UNL     1      23.050  -9.219 -31.862  0.00  0.00    +0.000 F 
ATOM     10  C14 UNL     1      22.556  -8.348 -34.023  0.00  0.00    +0.000 A 
ATOM     11  C15 UNL     1      22.988  -7.964 -35.295  0.00  0.00    +0.000 A 
ATOM     12  C16 UNL     1      24.341  -8.061 -35.641  0.00  0.00    +0.000 A 
ATOM     13 CL1  UNL     1      24.813  -7.596 -37.272  0.00  0.00    +0.000 Cl
ENDBRANCH   4   6
ENDBRANCH   1   4
BRANCH   1  14
ATOM     14  C1  UNL     1      27.690  -9.590 -37.460  0.00  0.00    +0.000 C 
BRANCH  14  15
ATOM     15  C2  UNL     1      27.958 -10.796 -38.360  0.00  0.00    +0.000 C 
BRANCH  15  16
ATOM     16  C3  UNL     1      28.215 -10.355 -39.770  0.00  0.00    +0.000 A 
ATOM     17  C4  UNL     1      29.453 -10.052 -40.331  0.00  0.00    +0.000 A 
ATOM     18  N2  UNL     1      29.300  -9.618 -41.603  0.00  0.00    +0.000 N 
ATOM     19  C5  UNL     1      27.977  -9.632 -41.844  0.00  0.00    +0.000 A 
ATOM     20  C6  UNL     1      27.328  -9.249 -43.017  0.00  0.00    +0.000 A 
ATOM     21  C7  UNL     1      25.922  -9.323 -43.045  0.00  0.00    +0.000 A 
ATOM     22  C8  UNL     1      25.207  -9.771 -41.912  0.00  0.00    +0.000 A 
ATOM     23  C9  UNL     1      25.889 -10.151 -40.742  0.00  0.00    +0.000 A 
ATOM     24  C10 UNL     1      27.282 -10.071 -40.747  0.00  0.00    +0.000 A 
ATOM     25  H7  UNL     1      30.057  -9.320 -42.257  0.00  0.00    +0.000 HD
ENDBRANCH  15  16
ENDBRANCH  14  15
ENDBRANCH   1  14
TORSDOF 5
ENDMDL
MODEL 4
REMARK VINA RESULT:    -5.732      4.160      5.085
REMARK INTER + INTRA:          -8.005
REMARK INTER:                  -5.831
REMARK INTRA:                  -2.174
REMARK UNBOUND:                -0.598
REMARK  Name = resultss/4CJN/ligands/lig_445_t0.pdb
REMARK  5 active torsions:
REMARK  status: ('A' for Active; 'I' for Inactive)
REMARK    1  A    between atoms: S1_2  and  N1_4
REMARK    2  A    between atoms: S1_2  and  C11_16
REMARK    3  A    between atoms: N1_4  and  C1_5
REMARK    4  A    between atoms: C1_5  and  C2_6
REMARK    5  A    between atoms: C2_6  and  C3_7
REMARK                            x       y       z     vdW  Elec       q    Type
REMARK                         _______ _______ _______ _____ _____    ______ ____
ROOT
ATOM      1  N1  UNL     1      25.528  -7.256 -42.964  0.00  0.00    +0.000 NA
ATOM      2  H1  UNL     1      26.168  -6.751 -42.308  0.00  0.00    +0.000 HD
ENDROOT
BRANCH   1   4
ATOM      3  O1  UNL     1      24.435  -9.659 -43.040  0.00  0.00    +0.000 OA
ATOM      4  S1  UNL     1      24.824  -8.575 -42.075  0.00  0.00    +0.000 S 
ATOM      5  O2  UNL     1      23.597  -8.089 -41.353  0.00  0.00    +0.000 OA
BRANCH   4   6
ATOM      6  C11 UNL     1      25.986  -9.236 -40.914  0.00  0.00    +0.000 A 
ATOM      7  C12 UNL     1      26.379 -10.581 -41.020  0.00  0.00    +0.000 A 
ATOM      8  C13 UNL     1      27.294 -11.126 -40.115  0.00  0.00    +0.000 A 
ATOM      9  F1  UNL     1      27.672 -12.423 -40.231  0.00  0.00    +0.000 F 
ATOM     10  C14 UNL     1      27.817 -10.337 -39.090  0.00  0.00    +0.000 A 
ATOM     11  C15 UNL     1      27.421  -9.004 -38.962  0.00  0.00    +0.000 A 
ATOM     12  C16 UNL     1      26.505  -8.448 -39.863  0.00  0.00    +0.000 A 
ATOM     13 CL1  UNL     1      26.020  -6.773 -39.624  0.00  0.00    +0.000 Cl
ENDBRANCH   4   6
ENDBRANCH   1   4
BRANCH   1  14
ATOM     14  C1  UNL     1      26.332  -7.772 -44.074  0.00  0.00    +0.000 C 
BRANCH  14  15
ATOM     15  C2  UNL     1      27.641  -6.989 -44.173  0.00  0.00    +0.000 C 
BRANCH  15  16
ATOM     16  C3  UNL     1      28.484  -7.213 -42.953  0.00  0.00    +0.000 A 
ATOM     17  C4  UNL     1      28.820  -6.264 -41.992  0.00  0.00    +0.000 A 
ATOM     18  N2  UNL     1      29.655  -6.800 -41.073  0.00  0.00    +0.000 N 
ATOM     19  C5  UNL     1      29.858  -8.073 -41.453  0.00  0.00    +0.000 A 
ATOM     20  C6  UNL     1      30.666  -9.023 -40.829  0.00  0.00    +0.000 A 
ATOM     21  C7  UNL     1      30.753 -10.300 -41.414  0.00  0.00    +0.000 A 
ATOM     22  C8  UNL     1      30.041 -10.594 -42.598  0.00  0.00    +0.000 A 
ATOM     23  C9  UNL     1      29.233  -9.616 -43.207  0.00  0.00    +0.000 A 
ATOM     24  C10 UNL     1      29.164  -8.361 -42.600  0.00  0.00    +0.000 A 
ATOM     25  H7  UNL     1      30.067  -6.315 -40.246  0.00  0.00    +0.000 HD
ENDBRANCH  15  16
ENDBRANCH  14  15
ENDBRANCH   1  14
TORSDOF 5
ENDMDL
MODEL 5
REMARK VINA RESULT:    -5.714      1.807      2.499
REMARK INTER + INTRA:          -7.982
REMARK INTER:                  -7.409
REMARK INTRA:                  -0.573
REMARK UNBOUND:                -0.598
REMARK  Name = resultss/4CJN/ligands/lig_445_t0.pdb
REMARK  5 active torsions:
REMARK  status: ('A' for Active; 'I' for Inactive)
REMARK    1  A    between atoms: S1_2  and  N1_4
REMARK    2  A    between atoms: S1_2  and  C11_16
REMARK    3  A    between atoms: N1_4  and  C1_5
REMARK    4  A    between atoms: C1_5  and  C2_6
REMARK    5  A    between atoms: C2_6  and  C3_7
REMARK                            x       y       z     vdW  Elec       q    Type
REMARK                         _______ _______ _______ _____ _____    ______ ____
ROOT
ATOM      1  N1  UNL     1      27.229 -10.253 -37.682  0.00  0.00    +0.000 NA
ATOM      2  H1  UNL     1      26.367 -10.769 -37.980  0.00  0.00    +0.000 HD
ENDROOT
BRANCH   1   4
ATOM      3  O1  UNL     1      26.060  -8.017 -38.461  0.00  0.00    +0.000 OA
ATOM      4  S1  UNL     1      26.737  -8.636 -37.271  0.00  0.00    +0.000 S 
ATOM      5  O2  UNL     1      27.952  -7.824 -36.913  0.00  0.00    +0.000 OA
BRANCH   4   6
ATOM      6  C11 UNL     1      25.601  -8.654 -35.915  0.00  0.00    +0.000 A 
ATOM      7  C12 UNL     1      24.337  -8.057 -36.064  0.00  0.00    +0.000 A 
ATOM      8  C13 UNL     1      23.424  -8.057 -35.007  0.00  0.00    +0.000 A 
ATOM      9  F1  UNL     1      22.205  -7.484 -35.164  0.00  0.00    +0.000 F 
ATOM     10  C14 UNL     1      23.765  -8.644 -33.788  0.00  0.00    +0.000 A 
ATOM     11  C15 UNL     1      25.024  -9.226 -33.620  0.00  0.00    +0.000 A 
ATOM     12  C16 UNL     1      25.947  -9.230 -34.672  0.00  0.00    +0.000 A 
ATOM     13 CL1  UNL     1      27.529  -9.946 -34.383  0.00  0.00    +0.000 Cl
ENDBRANCH   4   6
ENDBRANCH   1   4
BRANCH   1  14
ATOM     14  C1  UNL     1      28.154 -10.223 -38.817  0.00  0.00    +0.000 C 
BRANCH  14  15
ATOM     15  C2  UNL     1      27.629 -11.122 -39.936  0.00  0.00    +0.000 C 
BRANCH  15  16
ATOM     16  C3  UNL     1      26.858 -10.318 -40.940  0.00  0.00    +0.000 A 
ATOM     17  C4  UNL     1      25.475 -10.303 -41.104  0.00  0.00    +0.000 A 
ATOM     18  N2  UNL     1      25.134  -9.521 -42.154  0.00  0.00    +0.000 N 
ATOM     19  C5  UNL     1      26.288  -9.055 -42.661  0.00  0.00    +0.000 A 
ATOM     20  C6  UNL     1      26.450  -8.221 -43.767  0.00  0.00    +0.000 A 
ATOM     21  C7  UNL     1      27.760  -7.871 -44.141  0.00  0.00    +0.000 A 
ATOM     22  C8  UNL     1      28.867  -8.359 -43.410  0.00  0.00    +0.000 A 
ATOM     23  C9  UNL     1      28.674  -9.198 -42.298  0.00  0.00    +0.000 A 
ATOM     24  C10 UNL     1      27.363  -9.524 -41.950  0.00  0.00    +0.000 A 
ATOM     25  H7  UNL     1      24.169  -9.334 -42.504  0.00  0.00    +0.000 HD
ENDBRANCH  15  16
ENDBRANCH  14  15
ENDBRANCH   1  14
TORSDOF 5
ENDMDL
MODEL 6
REMARK VINA RESULT:    -5.632      3.201      7.789
REMARK INTER + INTRA:          -7.876
REMARK INTER:                  -7.274
REMARK INTRA:                  -0.603
REMARK UNBOUND:                -0.598
REMARK  Name = resultss/4CJN/ligands/lig_445_t0.pdb
REMARK  5 active torsions:
REMARK  status: ('A' for Active; 'I' for Inactive)
REMARK    1  A    between atoms: S1_2  and  N1_4
REMARK    2  A    between atoms: S1_2  and  C11_16
REMARK    3  A    between atoms: N1_4  and  C1_5
REMARK    4  A    between atoms: C1_5  and  C2_6
REMARK    5  A    between atoms: C2_6  and  C3_7
REMARK                            x       y       z     vdW  Elec       q    Type
REMARK                         _______ _______ _______ _____ _____    ______ ____
ROOT
ATOM      1  N1  UNL     1      27.379 -10.328 -36.811  0.00  0.00    +0.000 NA
ATOM      2  H1  UNL     1      27.919 -10.990 -37.415  0.00  0.00    +0.000 HD
ENDROOT
BRANCH   1   4
ATOM      3  O1  UNL     1      27.639  -7.772 -37.420  0.00  0.00    +0.000 OA
ATOM      4  S1  UNL     1      26.881  -9.005 -37.824  0.00  0.00    +0.000 S 
ATOM      5  O2  UNL     1      25.408  -8.765 -37.639  0.00  0.00    +0.000 OA
BRANCH   4   6
ATOM      6  C11 UNL     1      27.227  -9.355 -39.524  0.00  0.00    +0.000 A 
ATOM      7  C12 UNL     1      26.171  -9.391 -40.451  0.00  0.00    +0.000 A 
ATOM      8  C13 UNL     1      26.420  -9.666 -41.798  0.00  0.00    +0.000 A 
ATOM      9  F1  UNL     1      25.394  -9.692 -42.685  0.00  0.00    +0.000 F 
ATOM     10  C14 UNL     1      27.722  -9.918 -42.232  0.00  0.00    +0.000 A 
ATOM     11  C15 UNL     1      28.778  -9.902 -41.318  0.00  0.00    +0.000 A 
ATOM     12  C16 UNL     1      28.541  -9.628 -39.967  0.00  0.00    +0.000 A 
ATOM     13 CL1  UNL     1      29.910  -9.661 -38.861  0.00  0.00    +0.000 Cl
ENDBRANCH   4   6
ENDBRANCH   1   4
BRANCH   1  14
ATOM     14  C1  UNL     1      28.273  -9.843 -35.757  0.00  0.00    +0.000 C 
BRANCH  14  15
ATOM     15  C2  UNL     1      27.568  -9.922 -34.404  0.00  0.00    +0.000 C 
BRANCH  15  16
ATOM     16  C3  UNL     1      26.903  -8.618 -34.078  0.00  0.00    +0.000 A 
ATOM     17  C4  UNL     1      27.519  -7.373 -33.992  0.00  0.00    +0.000 A 
ATOM     18  N2  UNL     1      26.627  -6.432 -33.605  0.00  0.00    +0.000 N 
ATOM     19  C5  UNL     1      25.459  -7.076 -33.433  0.00  0.00    +0.000 A 
ATOM     20  C6  UNL     1      24.246  -6.528 -33.018  0.00  0.00    +0.000 A 
ATOM     21  C7  UNL     1      23.145  -7.395 -32.883  0.00  0.00    +0.000 A 
ATOM     22  C8  UNL     1      23.281  -8.773 -33.161  0.00  0.00    +0.000 A 
ATOM     23  C9  UNL     1      24.518  -9.297 -33.580  0.00  0.00    +0.000 A 
ATOM     24  C10 UNL     1      25.588  -8.413 -33.708  0.00  0.00    +0.000 A 
ATOM     25  H7  UNL     1      26.816  -5.417 -33.456  0.00  0.00    +0.000 HD
ENDBRANCH  15  16
ENDBRANCH  14  15
ENDBRANCH   1  14
TORSDOF 5
ENDMDL
MODEL 7
REMARK VINA RESULT:    -5.614      3.854      7.212
REMARK INTER + INTRA:          -7.853
REMARK INTER:                  -7.267
REMARK INTRA:                  -0.585
REMARK UNBOUND:                -0.598
REMARK  Name = resultss/4CJN/ligands/lig_445_t0.pdb
REMARK  5 active torsions:
REMARK  status: ('A' for Active; 'I' for Inactive)
REMARK    1  A    between atoms: S1_2  and  N1_4
REMARK    2  A    between atoms: S1_2  and  C11_16
REMARK    3  A    between atoms: N1_4  and  C1_5
REMARK    4  A    between atoms: C1_5  and  C2_6
REMARK    5  A    between atoms: C2_6  and  C3_7
REMARK                            x       y       z     vdW  Elec       q    Type
REMARK                         _______ _______ _______ _____ _____    ______ ____
ROOT
ATOM      1  N1  UNL     1      24.297  -9.046 -40.423  0.00  0.00    +0.000 NA
ATOM      2  H1  UNL     1      24.964  -9.767 -40.060  0.00  0.00    +0.000 HD
ENDROOT
BRANCH   1   4
ATOM      3  O1  UNL     1      23.885  -7.694 -42.653  0.00  0.00    +0.000 OA
ATOM      4  S1  UNL     1      24.543  -8.945 -42.141  0.00  0.00    +0.000 S 
ATOM      5  O2  UNL     1      23.917 -10.141 -42.804  0.00  0.00    +0.000 OA
BRANCH   4   6
ATOM      6  C11 UNL     1      26.269  -8.877 -42.523  0.00  0.00    +0.000 A 
ATOM      7  C12 UNL     1      26.723  -7.994 -43.519  0.00  0.00    +0.000 A 
ATOM      8  C13 UNL     1      28.081  -7.923 -43.838  0.00  0.00    +0.000 A 
ATOM      9  F1  UNL     1      28.508  -7.063 -44.795  0.00  0.00    +0.000 F 
ATOM     10  C14 UNL     1      28.999  -8.740 -43.176  0.00  0.00    +0.000 A 
ATOM     11  C15 UNL     1      28.560  -9.634 -42.197  0.00  0.00    +0.000 A 
ATOM     12  C16 UNL     1      27.201  -9.714 -41.870  0.00  0.00    +0.000 A 
ATOM     13 CL1  UNL     1      26.709 -10.888 -40.655  0.00  0.00    +0.000 Cl
ENDBRANCH   4   6
ENDBRANCH   1   4
BRANCH   1  14
ATOM     14  C1  UNL     1      24.627  -7.766 -39.793  0.00  0.00    +0.000 C 
BRANCH  14  15
ATOM     15  C2  UNL     1      25.902  -7.911 -38.963  0.00  0.00    +0.000 C 
BRANCH  15  16
ATOM     16  C3  UNL     1      25.575  -8.337 -37.563  0.00  0.00    +0.000 A 
ATOM     17  C4  UNL     1      24.371  -8.136 -36.895  0.00  0.00    +0.000 A 
ATOM     18  N2  UNL     1      24.457  -8.585 -35.622  0.00  0.00    +0.000 N 
ATOM     19  C5  UNL     1      25.708  -9.054 -35.478  0.00  0.00    +0.000 A 
ATOM     20  C6  UNL     1      26.278  -9.603 -34.329  0.00  0.00    +0.000 A 
ATOM     21  C7  UNL     1      27.622 -10.014 -34.393  0.00  0.00    +0.000 A 
ATOM     22  C8  UNL     1      28.359  -9.866 -35.590  0.00  0.00    +0.000 A 
ATOM     23  C9  UNL     1      27.758  -9.309 -36.733  0.00  0.00    +0.000 A 
ATOM     24  C10 UNL     1      26.423  -8.916 -36.639  0.00  0.00    +0.000 A 
ATOM     25  H7  UNL     1      23.706  -8.556 -34.898  0.00  0.00    +0.000 HD
ENDBRANCH  15  16
ENDBRANCH  14  15
ENDBRANCH   1  14
TORSDOF 5
ENDMDL
MODEL 8
REMARK VINA RESULT:    -5.600      2.265      3.012
REMARK INTER + INTRA:          -7.835
REMARK INTER:                  -6.804
REMARK INTRA:                  -1.030
REMARK UNBOUND:                -0.598
REMARK  Name = resultss/4CJN/ligands/lig_445_t0.pdb
REMARK  5 active torsions:
REMARK  status: ('A' for Active; 'I' for Inactive)
REMARK    1  A    between atoms: S1_2  and  N1_4
REMARK    2  A    between atoms: S1_2  and  C11_16
REMARK    3  A    between atoms: N1_4  and  C1_5
REMARK    4  A    between atoms: C1_5  and  C2_6
REMARK    5  A    between atoms: C2_6  and  C3_7
REMARK                            x       y       z     vdW  Elec       q    Type
REMARK                         _______ _______ _______ _____ _____    ______ ____
ROOT
ATOM      1  N1  UNL     1      24.416  -8.894 -39.205  0.00  0.00    +0.000 NA
ATOM      2  H1  UNL     1      23.445  -9.222 -38.993  0.00  0.00    +0.000 HD
ENDROOT
BRANCH   1   4
ATOM      3  O1  UNL     1      23.896  -8.028 -36.766  0.00  0.00    +0.000 OA
ATOM      4  S1  UNL     1      24.951  -7.966 -37.835  0.00  0.00    +0.000 S 
ATOM      5  O2  UNL     1      25.151  -6.535 -38.252  0.00  0.00    +0.000 OA
BRANCH   4   6
ATOM      6  C11 UNL     1      26.460  -8.623 -37.185  0.00  0.00    +0.000 A 
ATOM      7  C12 UNL     1      26.439  -9.329 -35.969  0.00  0.00    +0.000 A 
ATOM      8  C13 UNL     1      27.618  -9.856 -35.436  0.00  0.00    +0.000 A 
ATOM      9  F1  UNL     1      27.586 -10.542 -34.266  0.00  0.00    +0.000 F 
ATOM     10  C14 UNL     1      28.830  -9.676 -36.104  0.00  0.00    +0.000 A 
ATOM     11  C15 UNL     1      28.867  -8.961 -37.303  0.00  0.00    +0.000 A 
ATOM     12  C16 UNL     1      27.693  -8.428 -37.846  0.00  0.00    +0.000 A 
ATOM     13 CL1  UNL     1      27.815  -7.506 -39.341  0.00  0.00    +0.000 Cl
ENDBRANCH   4   6
ENDBRANCH   1   4
BRANCH   1  14
ATOM     14  C1  UNL     1      24.358  -8.043 -40.395  0.00  0.00    +0.000 C 
BRANCH  14  15
ATOM     15  C2  UNL     1      24.416  -8.908 -41.654  0.00  0.00    +0.000 C 
BRANCH  15  16
ATOM     16  C3  UNL     1      25.796  -8.897 -42.240  0.00  0.00    +0.000 A 
ATOM     17  C4  UNL     1      26.212  -8.196 -43.368  0.00  0.00    +0.000 A 
ATOM     18  N2  UNL     1      27.505  -8.478 -43.648  0.00  0.00    +0.000 N 
ATOM     19  C5  UNL     1      27.903  -9.361 -42.716  0.00  0.00    +0.000 A 
ATOM     20  C6  UNL     1      29.156  -9.962 -42.601  0.00  0.00    +0.000 A 
ATOM     21  C7  UNL     1      29.352 -10.881 -41.553  0.00  0.00    +0.000 A 
ATOM     22  C8  UNL     1      28.301 -11.176 -40.655  0.00  0.00    +0.000 A 
ATOM     23  C9  UNL     1      27.047 -10.554 -40.795  0.00  0.00    +0.000 A 
ATOM     24  C10 UNL     1      26.886  -9.645 -41.841  0.00  0.00    +0.000 A 
ATOM     25  H7  UNL     1      28.070  -8.098 -44.439  0.00  0.00    +0.000 HD
ENDBRANCH  15  16
ENDBRANCH  14  15
ENDBRANCH   1  14
TORSDOF 5
ENDMDL
MODEL 9
REMARK VINA RESULT:    -5.534      3.596      7.456
REMARK INTER + INTRA:          -7.750
REMARK INTER:                  -7.206
REMARK INTRA:                  -0.543
REMARK UNBOUND:                -0.598
REMARK  Name = resultss/4CJN/ligands/lig_445_t0.pdb
REMARK  5 active torsions:
REMARK  status: ('A' for Active; 'I' for Inactive)
REMARK    1  A    between atoms: S1_2  and  N1_4
REMARK    2  A    between atoms: S1_2  and  C11_16
REMARK    3  A    between atoms: N1_4  and  C1_5
REMARK    4  A    between atoms: C1_5  and  C2_6
REMARK    5  A    between atoms: C2_6  and  C3_7
REMARK                            x       y       z     vdW  Elec       q    Type
REMARK                         _______ _______ _______ _____ _____    ______ ____
ROOT
ATOM      1  N1  UNL     1      27.802 -11.107 -39.119  0.00  0.00    +0.000 NA
ATOM      2  H1  UNL     1      28.241 -12.050 -39.007  0.00  0.00    +0.000 HD
ENDROOT
BRANCH   1   4
ATOM      3  O1  UNL     1      29.261 -11.418 -41.298  0.00  0.00    +0.000 OA
ATOM      4  S1  UNL     1      28.543 -10.362 -40.505  0.00  0.00    +0.000 S 
ATOM      5  O2  UNL     1      29.534  -9.329 -40.044  0.00  0.00    +0.000 OA
BRANCH   4   6
ATOM      6  C11 UNL     1      27.320  -9.608 -41.538  0.00  0.00    +0.000 A 
ATOM      7  C12 UNL     1      25.965  -9.687 -41.175  0.00  0.00    +0.000 A 
ATOM      8  C13 UNL     1      24.981  -9.100 -41.975  0.00  0.00    +0.000 A 
ATOM      9  F1  UNL     1      23.677  -9.177 -41.611  0.00  0.00    +0.000 F 
ATOM     10  C14 UNL     1      25.338  -8.437 -43.150  0.00  0.00    +0.000 A 
ATOM     11  C15 UNL     1      26.680  -8.367 -43.531  0.00  0.00    +0.000 A 
ATOM     12  C16 UNL     1      27.674  -8.952 -42.738  0.00  0.00    +0.000 A 
ATOM     13 CL1  UNL     1      29.341  -8.859 -43.296  0.00  0.00    +0.000 Cl
ENDBRANCH   4   6
ENDBRANCH   1   4
BRANCH   1  14
ATOM     14  C1  UNL     1      28.093 -10.325 -37.915  0.00  0.00    +0.000 C 
BRANCH  14  15
ATOM     15  C2  UNL     1      27.028  -9.244 -37.731  0.00  0.00    +0.000 C 
BRANCH  15  16
ATOM     16  C3  UNL     1      26.522  -9.237 -36.319  0.00  0.00    +0.000 A 
ATOM     17  C4  UNL     1      27.141  -9.813 -35.214  0.00  0.00    +0.000 A 
ATOM     18  N2  UNL     1      26.364  -9.677 -34.115  0.00  0.00    +0.000 N 
ATOM     19  C5  UNL     1      25.256  -9.034 -34.521  0.00  0.00    +0.000 A 
ATOM     20  C6  UNL     1      24.151  -8.683 -33.746  0.00  0.00    +0.000 A 
ATOM     21  C7  UNL     1      23.081  -8.028 -34.384  0.00  0.00    +0.000 A 
ATOM     22  C8  UNL     1      23.139  -7.743 -35.767  0.00  0.00    +0.000 A 
ATOM     23  C9  UNL     1      24.268  -8.108 -36.523  0.00  0.00    +0.000 A 
ATOM     24  C10 UNL     1      25.313  -8.752 -35.861  0.00  0.00    +0.000 A 
ATOM     25  H7  UNL     1      26.579 -10.018 -33.152  0.00  0.00    +0.000 HD
ENDBRANCH  15  16
ENDBRANCH  14  15
ENDBRANCH   1  14
TORSDOF 5
ENDMDL
