MODEL 1
REMARK VINA RESULT:    -7.373      0.000      0.000
REMARK INTER + INTRA:          -9.556
REMARK INTER:                  -9.098
REMARK INTRA:                  -0.458
REMARK UNBOUND:                -0.458
REMARK  Name = resultss/4CJN/ligands/lig_165_t2.pdb
REMARK  4 active torsions:
REMARK  status: ('A' for Active; 'I' for Inactive)
REMARK    1  A    between atoms: C1_2  and  C9_14
REMARK    2  A    between atoms: N1_3  and  N2_4
REMARK    3  A    between atoms: C2_5  and  C3_6
REMARK    4  A    between atoms: C12_17  and  C13_18
REMARK                            x       y       z     vdW  Elec       q    Type
REMARK                         _______ _______ _______ _____ _____    ______ ____
ROOT
ATOM      1  C9  UNL     1      28.876  -9.454 -40.241  0.00  0.00    +0.000 A 
ATOM      2  C10 UNL     1      30.270  -9.488 -40.067  0.00  0.00    +0.000 A 
ATOM      3  C11 UNL     1      31.095 -10.039 -41.051  0.00  0.00    +0.000 A 
ATOM      4  C12 UNL     1      30.547 -10.576 -42.227  0.00  0.00    +0.000 A 
ATOM      5  C20 UNL     1      29.152 -10.555 -42.395  0.00  0.00    +0.000 A 
ATOM      6  C21 UNL     1      28.325 -10.004 -41.412  0.00  0.00    +0.000 A 
ENDROOT
BRANCH   4   7
ATOM      7  C13 UNL     1      31.432 -11.158 -43.263  0.00  0.00    +0.000 A 
ATOM      8  N3  UNL     1      32.124 -10.404 -44.156  0.00  0.00    +0.000 NA
ATOM      9  C14 UNL     1      32.857 -11.178 -44.997  0.00  0.00    +0.000 A 
ATOM     10  C15 UNL     1      33.670 -10.683 -46.018  0.00  0.00    +0.000 A 
ATOM     11  C16 UNL     1      34.379 -11.596 -46.819  0.00  0.00    +0.000 A 
ATOM     12  C17 UNL     1      34.267 -12.983 -46.591  0.00  0.00    +0.000 A 
ATOM     13  C18 UNL     1      33.446 -13.468 -45.561  0.00  0.00    +0.000 A 
ATOM     14  C19 UNL     1      32.756 -12.543 -44.783  0.00  0.00    +0.000 A 
ATOM     15  S1  UNL     1      31.715 -12.818 -43.498  0.00  0.00    +0.000 S 
ENDBRANCH   4   7
BRANCH   1  17
ATOM     16  O1  UNL     1      27.267  -7.892 -39.463  0.00  0.00    +0.000 OA
ATOM     17  C1  UNL     1      28.012  -8.872 -39.185  0.00  0.00    +0.000 C 
ATOM     18  N1  UNL     1      27.991  -9.411 -37.857  0.00  0.00    +0.000 N 
ATOM     19  H1  UNL     1      28.469 -10.317 -37.650  0.00  0.00    +0.000 HD
BRANCH  18  20
ATOM     20  N2  UNL     1      27.268  -8.757 -36.847  0.00  0.00    +0.000 NA
ATOM     21  C2  UNL     1      26.224  -9.296 -36.298  0.00  0.00    +0.000 C 
BRANCH  21  22
ATOM     22  C3  UNL     1      25.480  -8.570 -35.213  0.00  0.00    +0.000 C 
ATOM     23  C4  UNL     1      25.336  -9.486 -33.980  0.00  0.00    +0.000 C 
ATOM     24  C5  UNL     1      24.410  -8.902 -32.942  0.00  0.00    +0.000 C 
ATOM     25  C6  UNL     1      23.311  -8.227 -33.293  0.00  0.00    +0.000 C 
ATOM     26  C7  UNL     1      23.057  -7.894 -34.702  0.00  0.00    +0.000 C 
ATOM     27  O2  UNL     1      21.948  -7.404 -35.048  0.00  0.00    +0.000 OA
ATOM     28  C8  UNL     1      24.122  -8.113 -35.694  0.00  0.00    +0.000 C 
ATOM     29  O3  UNL     1      23.923  -7.834 -36.908  0.00  0.00    +0.000 OA
ENDBRANCH  21  22
ENDBRANCH  18  20
ENDBRANCH   1  17
TORSDOF 4
ENDMDL
MODEL 2
REMARK VINA RESULT:    -6.588      6.414      7.374
REMARK INTER + INTRA:          -8.587
REMARK INTER:                  -8.101
REMARK INTRA:                  -0.486
REMARK UNBOUND:                -0.458
REMARK  Name = resultss/4CJN/ligands/lig_165_t2.pdb
REMARK  4 active torsions:
REMARK  status: ('A' for Active; 'I' for Inactive)
REMARK    1  A    between atoms: C1_2  and  C9_14
REMARK    2  A    between atoms: N1_3  and  N2_4
REMARK    3  A    between atoms: C2_5  and  C3_6
REMARK    4  A    between atoms: C12_17  and  C13_18
REMARK                            x       y       z     vdW  Elec       q    Type
REMARK                         _______ _______ _______ _____ _____    ______ ____
ROOT
ATOM      1  C9  UNL     1      25.590  -8.705 -42.510  0.00  0.00    +0.000 A 
ATOM      2  C10 UNL     1      26.541  -8.239 -43.433  0.00  0.00    +0.000 A 
ATOM      3  C11 UNL     1      27.859  -8.703 -43.392  0.00  0.00    +0.000 A 
ATOM      4  C12 UNL     1      28.260  -9.636 -42.422  0.00  0.00    +0.000 A 
ATOM      5  C20 UNL     1      27.312 -10.092 -41.490  0.00  0.00    +0.000 A 
ATOM      6  C21 UNL     1      25.993  -9.630 -41.530  0.00  0.00    +0.000 A 
ENDROOT
BRANCH   4   7
ATOM      7  C13 UNL     1      29.659 -10.120 -42.387  0.00  0.00    +0.000 A 
ATOM      8  N3  UNL     1      30.076 -11.232 -43.047  0.00  0.00    +0.000 NA
ATOM      9  C14 UNL     1      31.401 -11.458 -42.851  0.00  0.00    +0.000 A 
ATOM     10  C15 UNL     1      32.109 -12.525 -43.406  0.00  0.00    +0.000 A 
ATOM     11  C16 UNL     1      33.482 -12.643 -43.123  0.00  0.00    +0.000 A 
ATOM     12  C17 UNL     1      34.125 -11.700 -42.296  0.00  0.00    +0.000 A 
ATOM     13  C18 UNL     1      33.401 -10.630 -41.745  0.00  0.00    +0.000 A 
ATOM     14  C19 UNL     1      32.044 -10.537 -42.041  0.00  0.00    +0.000 A 
ATOM     15  S1  UNL     1      30.935  -9.386 -41.536  0.00  0.00    +0.000 S 
ENDBRANCH   4   7
BRANCH   1  17
ATOM     16  O1  UNL     1      23.586  -7.950 -41.488  0.00  0.00    +0.000 OA
ATOM     17  C1  UNL     1      24.197  -8.199 -42.563  0.00  0.00    +0.000 C 
ATOM     18  N1  UNL     1      23.534  -7.970 -43.813  0.00  0.00    +0.000 N 
ATOM     19  H1  UNL     1      24.072  -8.010 -44.708  0.00  0.00    +0.000 HD
BRANCH  18  20
ATOM     20  N2  UNL     1      22.175  -7.621 -43.831  0.00  0.00    +0.000 NA
ATOM     21  C2  UNL     1      21.753  -6.552 -44.431  0.00  0.00    +0.000 C 
BRANCH  21  22
ATOM     22  C3  UNL     1      20.289  -6.215 -44.438  0.00  0.00    +0.000 C 
ATOM     23  C4  UNL     1      19.672  -6.555 -43.065  0.00  0.00    +0.000 C 
ATOM     24  C5  UNL     1      18.166  -6.451 -43.077  0.00  0.00    +0.000 C 
ATOM     25  C6  UNL     1      17.452  -6.828 -44.142  0.00  0.00    +0.000 C 
ATOM     26  C7  UNL     1      18.122  -7.205 -45.395  0.00  0.00    +0.000 C 
ATOM     27  O2  UNL     1      17.460  -7.712 -46.340  0.00  0.00    +0.000 OA
ATOM     28  C8  UNL     1      19.565  -6.954 -45.541  0.00  0.00    +0.000 C 
ATOM     29  O3  UNL     1      20.157  -7.270 -46.609  0.00  0.00    +0.000 OA
ENDBRANCH  21  22
ENDBRANCH  18  20
ENDBRANCH   1  17
TORSDOF 4
ENDMDL
MODEL 3
REMARK VINA RESULT:    -6.133      2.368      2.786
REMARK INTER + INTRA:          -8.025
REMARK INTER:                  -7.561
REMARK INTRA:                  -0.464
REMARK UNBOUND:                -0.458
REMARK  Name = resultss/4CJN/ligands/lig_165_t2.pdb
REMARK  4 active torsions:
REMARK  status: ('A' for Active; 'I' for Inactive)
REMARK    1  A    between atoms: C1_2  and  C9_14
REMARK    2  A    between atoms: N1_3  and  N2_4
REMARK    3  A    between atoms: C2_5  and  C3_6
REMARK    4  A    between atoms: C12_17  and  C13_18
REMARK                            x       y       z     vdW  Elec       q    Type
REMARK                         _______ _______ _______ _____ _____    ______ ____
ROOT
ATOM      1  C9  UNL     1      30.092  -9.531 -40.579  0.00  0.00    +0.000 A 
ATOM      2  C10 UNL     1      31.472  -9.789 -40.526  0.00  0.00    +0.000 A 
ATOM      3  C11 UNL     1      32.118 -10.424 -41.590  0.00  0.00    +0.000 A 
ATOM      4  C12 UNL     1      31.399 -10.823 -42.729  0.00  0.00    +0.000 A 
ATOM      5  C20 UNL     1      30.016 -10.576 -42.777  0.00  0.00    +0.000 A 
ATOM      6  C21 UNL     1      29.369  -9.942 -41.713  0.00  0.00    +0.000 A 
ENDROOT
BRANCH   4   7
ATOM      7  C13 UNL     1      32.094 -11.495 -43.852  0.00  0.00    +0.000 A 
ATOM      8  N3  UNL     1      31.791 -12.752 -44.266  0.00  0.00    +0.000 NA
ATOM      9  C14 UNL     1      32.573 -13.134 -45.309  0.00  0.00    +0.000 A 
ATOM     10  C15 UNL     1      32.489 -14.373 -45.945  0.00  0.00    +0.000 A 
ATOM     11  C16 UNL     1      33.360 -14.642 -47.016  0.00  0.00    +0.000 A 
ATOM     12  C17 UNL     1      34.297 -13.675 -47.434  0.00  0.00    +0.000 A 
ATOM     13  C18 UNL     1      34.371 -12.432 -46.786  0.00  0.00    +0.000 A 
ATOM     14  C19 UNL     1      33.496 -12.192 -45.730  0.00  0.00    +0.000 A 
ATOM     15  S1  UNL     1      33.351 -10.821 -44.777  0.00  0.00    +0.000 S 
ENDBRANCH   4   7
BRANCH   1  17
ATOM     16  O1  UNL     1      28.162  -8.898 -39.353  0.00  0.00    +0.000 OA
ATOM     17  C1  UNL     1      29.419  -8.862 -39.439  0.00  0.00    +0.000 C 
ATOM     18  N1  UNL     1      30.171  -8.189 -38.420  0.00  0.00    +0.000 N 
ATOM     19  H1  UNL     1      31.211  -8.289 -38.382  0.00  0.00    +0.000 HD
BRANCH  18  20
ATOM     20  N2  UNL     1      29.504  -7.452 -37.429  0.00  0.00    +0.000 NA
ATOM     21  C2  UNL     1      29.368  -7.902 -36.221  0.00  0.00    +0.000 C 
BRANCH  21  22
ATOM     22  C3  UNL     1      28.656  -7.080 -35.184  0.00  0.00    +0.000 C 
ATOM     23  C4  UNL     1      29.494  -7.038 -33.889  0.00  0.00    +0.000 C 
ATOM     24  C5  UNL     1      28.736  -6.419 -32.740  0.00  0.00    +0.000 C 
ATOM     25  C6  UNL     1      27.427  -6.634 -32.575  0.00  0.00    +0.000 C 
ATOM     26  C7  UNL     1      26.653  -7.349 -33.600  0.00  0.00    +0.000 C 
ATOM     27  O2  UNL     1      25.462  -7.691 -33.371  0.00  0.00    +0.000 OA
ATOM     28  C8  UNL     1      27.277  -7.632 -34.903  0.00  0.00    +0.000 C 
ATOM     29  O3  UNL     1      26.628  -8.245 -35.795  0.00  0.00    +0.000 OA
ENDBRANCH  21  22
ENDBRANCH  18  20
ENDBRANCH   1  17
TORSDOF 4
ENDMDL
MODEL 4
REMARK VINA RESULT:    -5.996      5.874      7.918
REMARK INTER + INTRA:          -7.856
REMARK INTER:                  -7.390
REMARK INTRA:                  -0.466
REMARK UNBOUND:                -0.458
REMARK  Name = resultss/4CJN/ligands/lig_165_t2.pdb
REMARK  4 active torsions:
REMARK  status: ('A' for Active; 'I' for Inactive)
REMARK    1  A    between atoms: C1_2  and  C9_14
REMARK    2  A    between atoms: N1_3  and  N2_4
REMARK    3  A    between atoms: C2_5  and  C3_6
REMARK    4  A    between atoms: C12_17  and  C13_18
REMARK                            x       y       z     vdW  Elec       q    Type
REMARK                         _______ _______ _______ _____ _____    ______ ____
ROOT
ATOM      1  C9  UNL     1      26.211  -8.974 -40.571  0.00  0.00    +0.000 A 
ATOM      2  C10 UNL     1      25.312  -7.901 -40.446  0.00  0.00    +0.000 A 
ATOM      3  C11 UNL     1      24.541  -7.489 -41.536  0.00  0.00    +0.000 A 
ATOM      4  C12 UNL     1      24.655  -8.134 -42.779  0.00  0.00    +0.000 A 
ATOM      5  C20 UNL     1      25.563  -9.199 -42.907  0.00  0.00    +0.000 A 
ATOM      6  C21 UNL     1      26.335  -9.612 -41.818  0.00  0.00    +0.000 A 
ENDROOT
BRANCH   4   7
ATOM      7  C13 UNL     1      23.832  -7.690 -43.927  0.00  0.00    +0.000 A 
ATOM      8  N3  UNL     1      24.274  -7.716 -45.211  0.00  0.00    +0.000 NA
ATOM      9  C14 UNL     1      23.330  -7.255 -46.071  0.00  0.00    +0.000 A 
ATOM     10  C15 UNL     1      23.498  -7.166 -47.454  0.00  0.00    +0.000 A 
ATOM     11  C16 UNL     1      22.437  -6.670 -48.233  0.00  0.00    +0.000 A 
ATOM     12  C17 UNL     1      21.230  -6.272 -47.624  0.00  0.00    +0.000 A 
ATOM     13  C18 UNL     1      21.073  -6.368 -46.232  0.00  0.00    +0.000 A 
ATOM     14  C19 UNL     1      22.138  -6.862 -45.485  0.00  0.00    +0.000 A 
ATOM     15  S1  UNL     1      22.245  -7.088 -43.828  0.00  0.00    +0.000 S 
ENDBRANCH   4   7
BRANCH   1  17
ATOM     16  O1  UNL     1      28.187  -9.852 -39.595  0.00  0.00    +0.000 OA
ATOM     17  C1  UNL     1      27.027  -9.395 -39.406  0.00  0.00    +0.000 C 
ATOM     18  N1  UNL     1      26.532  -9.277 -38.067  0.00  0.00    +0.000 N 
ATOM     19  H1  UNL     1      25.648  -8.752 -37.878  0.00  0.00    +0.000 HD
BRANCH  18  20
ATOM     20  N2  UNL     1      27.270  -9.808 -36.997  0.00  0.00    +0.000 NA
ATOM     21  C2  UNL     1      27.970  -9.051 -36.210  0.00  0.00    +0.000 C 
BRANCH  21  22
ATOM     22  C3  UNL     1      28.741  -9.654 -35.070  0.00  0.00    +0.000 C 
ATOM     23  C4  UNL     1      28.447  -8.871 -33.774  0.00  0.00    +0.000 C 
ATOM     24  C5  UNL     1      29.357  -9.282 -32.642  0.00  0.00    +0.000 C 
ATOM     25  C6  UNL     1      30.641  -9.584 -32.857  0.00  0.00    +0.000 C 
ATOM     26  C7  UNL     1      31.166  -9.681 -34.227  0.00  0.00    +0.000 C 
ATOM     27  O2  UNL     1      32.404  -9.805 -34.424  0.00  0.00    +0.000 OA
ATOM     28  C8  UNL     1      30.225  -9.661 -35.359  0.00  0.00    +0.000 C 
ATOM     29  O3  UNL     1      30.656  -9.744 -36.541  0.00  0.00    +0.000 OA
ENDBRANCH  21  22
ENDBRANCH  18  20
ENDBRANCH   1  17
TORSDOF 4
ENDMDL
MODEL 5
REMARK VINA RESULT:    -5.957      6.264      9.647
REMARK INTER + INTRA:          -7.808
REMARK INTER:                  -7.309
REMARK INTRA:                  -0.499
REMARK UNBOUND:                -0.458
REMARK  Name = resultss/4CJN/ligands/lig_165_t2.pdb
REMARK  4 active torsions:
REMARK  status: ('A' for Active; 'I' for Inactive)
REMARK    1  A    between atoms: C1_2  and  C9_14
REMARK    2  A    between atoms: N1_3  and  N2_4
REMARK    3  A    between atoms: C2_5  and  C3_6
REMARK    4  A    between atoms: C12_17  and  C13_18
REMARK                            x       y       z     vdW  Elec       q    Type
REMARK                         _______ _______ _______ _____ _____    ______ ____
ROOT
ATOM      1  C9  UNL     1      25.087  -8.844 -40.243  0.00  0.00    +0.000 A 
ATOM      2  C10 UNL     1      26.341  -9.461 -40.384  0.00  0.00    +0.000 A 
ATOM      3  C11 UNL     1      27.188  -9.611 -39.283  0.00  0.00    +0.000 A 
ATOM      4  C12 UNL     1      26.805  -9.141 -38.015  0.00  0.00    +0.000 A 
ATOM      5  C20 UNL     1      25.555  -8.512 -37.877  0.00  0.00    +0.000 A 
ATOM      6  C21 UNL     1      24.708  -8.361 -38.978  0.00  0.00    +0.000 A 
ENDROOT
BRANCH   4   7
ATOM      7  C13 UNL     1      27.710  -9.305 -36.855  0.00  0.00    +0.000 A 
ATOM      8  N3  UNL     1      29.064  -9.295 -36.962  0.00  0.00    +0.000 NA
ATOM      9  C14 UNL     1      29.660  -9.466 -35.754  0.00  0.00    +0.000 A 
ATOM     10  C15 UNL     1      31.040  -9.498 -35.553  0.00  0.00    +0.000 A 
ATOM     11  C16 UNL     1      31.528  -9.682 -34.246  0.00  0.00    +0.000 A 
ATOM     12  C17 UNL     1      30.635  -9.832 -33.166  0.00  0.00    +0.000 A 
ATOM     13  C18 UNL     1      29.249  -9.798 -33.381  0.00  0.00    +0.000 A 
ATOM     14  C19 UNL     1      28.793  -9.613 -34.684  0.00  0.00    +0.000 A 
ATOM     15  S1  UNL     1      27.215  -9.531 -35.244  0.00  0.00    +0.000 S 
ENDBRANCH   4   7
BRANCH   1  17
ATOM     16  O1  UNL     1      24.280  -9.513 -42.371  0.00  0.00    +0.000 OA
ATOM     17  C1  UNL     1      24.202  -8.686 -41.423  0.00  0.00    +0.000 C 
ATOM     18  N1  UNL     1      23.244  -7.622 -41.499  0.00  0.00    +0.000 N 
ATOM     19  H1  UNL     1      23.048  -7.031 -40.661  0.00  0.00    +0.000 HD
BRANCH  18  20
ATOM     20  N2  UNL     1      22.516  -7.419 -42.682  0.00  0.00    +0.000 NA
ATOM     21  C2  UNL     1      22.614  -6.320 -43.363  0.00  0.00    +0.000 C 
BRANCH  21  22
ATOM     22  C3  UNL     1      21.826  -6.141 -44.630  0.00  0.00    +0.000 C 
ATOM     23  C4  UNL     1      20.382  -6.641 -44.418  0.00  0.00    +0.000 C 
ATOM     24  C5  UNL     1      19.605  -6.697 -45.710  0.00  0.00    +0.000 C 
ATOM     25  C6  UNL     1      20.185  -7.072 -46.855  0.00  0.00    +0.000 C 
ATOM     26  C7  UNL     1      21.638  -7.286 -46.920  0.00  0.00    +0.000 C 
ATOM     27  O2  UNL     1      22.158  -7.792 -47.950  0.00  0.00    +0.000 OA
ATOM     28  C8  UNL     1      22.476  -6.873 -45.782  0.00  0.00    +0.000 C 
ATOM     29  O3  UNL     1      23.724  -7.047 -45.821  0.00  0.00    +0.000 OA
ENDBRANCH  21  22
ENDBRANCH  18  20
ENDBRANCH   1  17
TORSDOF 4
ENDMDL
MODEL 6
REMARK VINA RESULT:    -5.826      5.228      6.702
REMARK INTER + INTRA:          -7.646
REMARK INTER:                  -7.273
REMARK INTRA:                  -0.374
REMARK UNBOUND:                -0.458
REMARK  Name = resultss/4CJN/ligands/lig_165_t2.pdb
REMARK  4 active torsions:
REMARK  status: ('A' for Active; 'I' for Inactive)
REMARK    1  A    between atoms: C1_2  and  C9_14
REMARK    2  A    between atoms: N1_3  and  N2_4
REMARK    3  A    between atoms: C2_5  and  C3_6
REMARK    4  A    between atoms: C12_17  and  C13_18
REMARK                            x       y       z     vdW  Elec       q    Type
REMARK                         _______ _______ _______ _____ _____    ______ ____
ROOT
ATOM      1  C9  UNL     1      26.971  -8.966 -40.291  0.00  0.00    +0.000 A 
ATOM      2  C10 UNL     1      26.323  -7.740 -40.514  0.00  0.00    +0.000 A 
ATOM      3  C11 UNL     1      26.051  -7.305 -41.814  0.00  0.00    +0.000 A 
ATOM      4  C12 UNL     1      26.429  -8.082 -42.922  0.00  0.00    +0.000 A 
ATOM      5  C20 UNL     1      27.090  -9.302 -42.699  0.00  0.00    +0.000 A 
ATOM      6  C21 UNL     1      27.362  -9.738 -41.399  0.00  0.00    +0.000 A 
ENDROOT
BRANCH   4   7
ATOM      7  C13 UNL     1      26.136  -7.611 -44.295  0.00  0.00    +0.000 A 
ATOM      8  N3  UNL     1      27.104  -7.334 -45.207  0.00  0.00    +0.000 NA
ATOM      9  C14 UNL     1      26.573  -6.920 -46.386  0.00  0.00    +0.000 A 
ATOM     10  C15 UNL     1      27.323  -6.566 -47.508  0.00  0.00    +0.000 A 
ATOM     11  C16 UNL     1      26.646  -6.155 -48.671  0.00  0.00    +0.000 A 
ATOM     12  C17 UNL     1      25.237  -6.103 -48.695  0.00  0.00    +0.000 A 
ATOM     13  C18 UNL     1      24.494  -6.462 -47.560  0.00  0.00    +0.000 A 
ATOM     14  C19 UNL     1      25.190  -6.866 -46.424  0.00  0.00    +0.000 A 
ATOM     15  S1  UNL     1      24.584  -7.347 -44.936  0.00  0.00    +0.000 S 
ENDBRANCH   4   7
BRANCH   1  17
ATOM     16  O1  UNL     1      26.373  -9.280 -38.016  0.00  0.00    +0.000 OA
ATOM     17  C1  UNL     1      27.258  -9.411 -38.905  0.00  0.00    +0.000 C 
ATOM     18  N1  UNL     1      28.515 -10.005 -38.557  0.00  0.00    +0.000 N 
ATOM     19  H1  UNL     1      29.194 -10.273 -39.305  0.00  0.00    +0.000 HD
BRANCH  18  20
ATOM     20  N2  UNL     1      28.807 -10.292 -37.215  0.00  0.00    +0.000 NA
ATOM     21  C2  UNL     1      29.222  -9.376 -36.396  0.00  0.00    +0.000 C 
BRANCH  21  22
ATOM     22  C3  UNL     1      29.516  -9.718 -34.963  0.00  0.00    +0.000 C 
ATOM     23  C4  UNL     1      28.700  -8.797 -34.031  0.00  0.00    +0.000 C 
ATOM     24  C5  UNL     1      29.116  -8.938 -32.587  0.00  0.00    +0.000 C 
ATOM     25  C6  UNL     1      30.396  -9.119 -32.247  0.00  0.00    +0.000 C 
ATOM     26  C7  UNL     1      31.418  -9.348 -33.278  0.00  0.00    +0.000 C 
ATOM     27  O2  UNL     1      32.639  -9.357 -32.969  0.00  0.00    +0.000 OA
ATOM     28  C8  UNL     1      30.993  -9.597 -34.666  0.00  0.00    +0.000 C 
ATOM     29  O3  UNL     1      31.856  -9.797 -35.565  0.00  0.00    +0.000 OA
ENDBRANCH  21  22
ENDBRANCH  18  20
ENDBRANCH   1  17
TORSDOF 4
ENDMDL
MODEL 7
REMARK VINA RESULT:    -5.780      6.131      8.306
REMARK INTER + INTRA:          -7.589
REMARK INTER:                  -7.141
REMARK INTRA:                  -0.448
REMARK UNBOUND:                -0.458
REMARK  Name = resultss/4CJN/ligands/lig_165_t2.pdb
REMARK  4 active torsions:
REMARK  status: ('A' for Active; 'I' for Inactive)
REMARK    1  A    between atoms: C1_2  and  C9_14
REMARK    2  A    between atoms: N1_3  and  N2_4
REMARK    3  A    between atoms: C2_5  and  C3_6
REMARK    4  A    between atoms: C12_17  and  C13_18
REMARK                            x       y       z     vdW  Elec       q    Type
REMARK                         _______ _______ _______ _____ _____    ______ ____
ROOT
ATOM      1  C9  UNL     1      26.077  -9.160 -41.623  0.00  0.00    +0.000 A 
ATOM      2  C10 UNL     1      24.690  -9.376 -41.676  0.00  0.00    +0.000 A 
ATOM      3  C11 UNL     1      23.932  -8.873 -42.736  0.00  0.00    +0.000 A 
ATOM      4  C12 UNL     1      24.541  -8.135 -43.765  0.00  0.00    +0.000 A 
ATOM      5  C20 UNL     1      25.927  -7.908 -43.706  0.00  0.00    +0.000 A 
ATOM      6  C21 UNL     1      26.686  -8.411 -42.645  0.00  0.00    +0.000 A 
ENDROOT
BRANCH   4   7
ATOM      7  C13 UNL     1      23.728  -7.606 -44.884  0.00  0.00    +0.000 A 
ATOM      8  N3  UNL     1      22.399  -7.349 -44.779  0.00  0.00    +0.000 NA
ATOM      9  C14 UNL     1      21.891  -6.873 -45.945  0.00  0.00    +0.000 A 
ATOM     10  C15 UNL     1      20.554  -6.519 -46.137  0.00  0.00    +0.000 A 
ATOM     11  C16 UNL     1      20.158  -6.038 -47.398  0.00  0.00    +0.000 A 
ATOM     12  C17 UNL     1      21.096  -5.918 -48.443  0.00  0.00    +0.000 A 
ATOM     13  C18 UNL     1      22.437  -6.276 -48.237  0.00  0.00    +0.000 A 
ATOM     14  C19 UNL     1      22.803  -6.749 -46.980  0.00  0.00    +0.000 A 
ATOM     15  S1  UNL     1      24.310  -7.248 -46.441  0.00  0.00    +0.000 S 
ENDBRANCH   4   7
BRANCH   1  17
ATOM     16  O1  UNL     1      27.643 -10.673 -40.677  0.00  0.00    +0.000 OA
ATOM     17  C1  UNL     1      26.867  -9.696 -40.488  0.00  0.00    +0.000 C 
ATOM     18  N1  UNL     1      26.783  -9.114 -39.180  0.00  0.00    +0.000 N 
ATOM     19  H1  UNL     1      26.280  -8.210 -39.040  0.00  0.00    +0.000 HD
BRANCH  18  20
ATOM     20  N2  UNL     1      27.437  -9.724 -38.098  0.00  0.00    +0.000 NA
ATOM     21  C2  UNL     1      27.982  -9.028 -37.150  0.00  0.00    +0.000 C 
BRANCH  21  22
ATOM     22  C3  UNL     1      28.666  -9.716 -36.003  0.00  0.00    +0.000 C 
ATOM     23  C4  UNL     1      28.171  -9.118 -34.669  0.00  0.00    +0.000 C 
ATOM     24  C5  UNL     1      28.979  -9.607 -33.492  0.00  0.00    +0.000 C 
ATOM     25  C6  UNL     1      30.298  -9.800 -33.587  0.00  0.00    +0.000 C 
ATOM     26  C7  UNL     1      30.977  -9.695 -34.886  0.00  0.00    +0.000 C 
ATOM     27  O2  UNL     1      32.236  -9.716 -34.947  0.00  0.00    +0.000 OA
ATOM     28  C8  UNL     1      30.168  -9.595 -36.113  0.00  0.00    +0.000 C 
ATOM     29  O3  UNL     1      30.733  -9.505 -37.237  0.00  0.00    +0.000 OA
ENDBRANCH  21  22
ENDBRANCH  18  20
ENDBRANCH   1  17
TORSDOF 4
ENDMDL
MODEL 8
REMARK VINA RESULT:    -5.688      6.717      8.543
REMARK INTER + INTRA:          -7.476
REMARK INTER:                  -6.986
REMARK INTRA:                  -0.491
REMARK UNBOUND:                -0.458
REMARK  Name = resultss/4CJN/ligands/lig_165_t2.pdb
REMARK  4 active torsions:
REMARK  status: ('A' for Active; 'I' for Inactive)
REMARK    1  A    between atoms: C1_2  and  C9_14
REMARK    2  A    between atoms: N1_3  and  N2_4
REMARK    3  A    between atoms: C2_5  and  C3_6
REMARK    4  A    between atoms: C12_17  and  C13_18
REMARK                            x       y       z     vdW  Elec       q    Type
REMARK                         _______ _______ _______ _____ _____    ______ ____
ROOT
ATOM      1  C9  UNL     1      24.100  -7.481 -41.116  0.00  0.00    +0.000 A 
ATOM      2  C10 UNL     1      24.576  -8.236 -42.201  0.00  0.00    +0.000 A 
ATOM      3  C11 UNL     1      24.002  -8.101 -43.468  0.00  0.00    +0.000 A 
ATOM      4  C12 UNL     1      22.933  -7.214 -43.679  0.00  0.00    +0.000 A 
ATOM      5  C20 UNL     1      22.448  -6.468 -42.590  0.00  0.00    +0.000 A 
ATOM      6  C21 UNL     1      23.022  -6.603 -41.323  0.00  0.00    +0.000 A 
ENDROOT
BRANCH   4   7
ATOM      7  C13 UNL     1      22.331  -7.079 -45.025  0.00  0.00    +0.000 A 
ATOM      8  N3  UNL     1      20.991  -7.069 -45.242  0.00  0.00    +0.000 NA
ATOM      9  C14 UNL     1      20.701  -6.934 -46.562  0.00  0.00    +0.000 A 
ATOM     10  C15 UNL     1      19.408  -6.890 -47.085  0.00  0.00    +0.000 A 
ATOM     11  C16 UNL     1      19.247  -6.747 -48.475  0.00  0.00    +0.000 A 
ATOM     12  C17 UNL     1      20.373  -6.651 -49.318  0.00  0.00    +0.000 A 
ATOM     13  C18 UNL     1      21.668  -6.696 -48.779  0.00  0.00    +0.000 A 
ATOM     14  C19 UNL     1      21.799  -6.837 -47.400  0.00  0.00    +0.000 A 
ATOM     15  S1  UNL     1      23.198  -6.921 -46.480  0.00  0.00    +0.000 S 
ENDBRANCH   4   7
BRANCH   1  17
ATOM     16  O1  UNL     1      25.703  -8.413 -39.635  0.00  0.00    +0.000 OA
ATOM     17  C1  UNL     1      24.717  -7.640 -39.776  0.00  0.00    +0.000 C 
ATOM     18  N1  UNL     1      24.226  -6.918 -38.640  0.00  0.00    +0.000 N 
ATOM     19  H1  UNL     1      23.525  -6.154 -38.766  0.00  0.00    +0.000 HD
BRANCH  18  20
ATOM     20  N2  UNL     1      24.740  -7.189 -37.362  0.00  0.00    +0.000 NA
ATOM     21  C2  UNL     1      24.199  -8.073 -36.583  0.00  0.00    +0.000 C 
BRANCH  21  22
ATOM     22  C3  UNL     1      24.783  -8.343 -35.225  0.00  0.00    +0.000 C 
ATOM     23  C4  UNL     1      25.085  -7.007 -34.514  0.00  0.00    +0.000 C 
ATOM     24  C5  UNL     1      25.876  -7.205 -33.244  0.00  0.00    +0.000 C 
ATOM     25  C6  UNL     1      26.832  -8.134 -33.158  0.00  0.00    +0.000 C 
ATOM     26  C7  UNL     1      27.032  -9.102 -34.247  0.00  0.00    +0.000 C 
ATOM     27  O2  UNL     1      28.032  -9.869 -34.236  0.00  0.00    +0.000 OA
ATOM     28  C8  UNL     1      26.037  -9.182 -35.328  0.00  0.00    +0.000 C 
ATOM     29  O3  UNL     1      26.191 -10.006 -36.270  0.00  0.00    +0.000 OA
ENDBRANCH  21  22
ENDBRANCH  18  20
ENDBRANCH   1  17
TORSDOF 4
ENDMDL
MODEL 9
REMARK VINA RESULT:    -5.129      5.512      7.456
REMARK INTER + INTRA:          -6.786
REMARK INTER:                  -6.347
REMARK INTRA:                  -0.439
REMARK UNBOUND:                -0.458
REMARK  Name = resultss/4CJN/ligands/lig_165_t2.pdb
REMARK  4 active torsions:
REMARK  status: ('A' for Active; 'I' for Inactive)
REMARK    1  A    between atoms: C1_2  and  C9_14
REMARK    2  A    between atoms: N1_3  and  N2_4
REMARK    3  A    between atoms: C2_5  and  C3_6
REMARK    4  A    between atoms: C12_17  and  C13_18
REMARK                            x       y       z     vdW  Elec       q    Type
REMARK                         _______ _______ _______ _____ _____    ______ ____
ROOT
ATOM      1  C9  UNL     1      27.356  -9.266 -40.110  0.00  0.00    +0.000 A 
ATOM      2  C10 UNL     1      27.870  -9.719 -41.336  0.00  0.00    +0.000 A 
ATOM      3  C11 UNL     1      27.344  -9.252 -42.544  0.00  0.00    +0.000 A 
ATOM      4  C12 UNL     1      26.286  -8.327 -42.554  0.00  0.00    +0.000 A 
ATOM      5  C20 UNL     1      25.763  -7.884 -41.327  0.00  0.00    +0.000 A 
ATOM      6  C21 UNL     1      26.289  -8.351 -40.118  0.00  0.00    +0.000 A 
ENDROOT
BRANCH   4   7
ATOM      7  C13 UNL     1      25.736  -7.838 -43.839  0.00  0.00    +0.000 A 
ATOM      8  N3  UNL     1      24.412  -7.865 -44.138  0.00  0.00    +0.000 NA
ATOM      9  C14 UNL     1      24.171  -7.361 -45.376  0.00  0.00    +0.000 A 
ATOM     10  C15 UNL     1      22.904  -7.259 -45.953  0.00  0.00    +0.000 A 
ATOM     11  C16 UNL     1      22.794  -6.717 -47.247  0.00  0.00    +0.000 A 
ATOM     12  C17 UNL     1      23.943  -6.287 -47.941  0.00  0.00    +0.000 A 
ATOM     13  C18 UNL     1      25.211  -6.395 -47.348  0.00  0.00    +0.000 A 
ATOM     14  C19 UNL     1      25.292  -6.934 -46.068  0.00  0.00    +0.000 A 
ATOM     15  S1  UNL     1      26.649  -7.185 -45.117  0.00  0.00    +0.000 S 
ENDBRANCH   4   7
BRANCH   1  17
ATOM     16  O1  UNL     1      27.161 -10.339 -38.002  0.00  0.00    +0.000 OA
ATOM     17  C1  UNL     1      27.921  -9.776 -38.836  0.00  0.00    +0.000 C 
ATOM     18  N1  UNL     1      29.319  -9.658 -38.541  0.00  0.00    +0.000 N 
ATOM     19  H1  UNL     1      29.988  -9.349 -39.282  0.00  0.00    +0.000 HD
BRANCH  18  20
ATOM     20  N2  UNL     1      29.801 -10.027 -37.275  0.00  0.00    +0.000 NA
ATOM     21  C2  UNL     1      30.449  -9.193 -36.523  0.00  0.00    +0.000 C 
BRANCH  21  22
ATOM     22  C3  UNL     1      30.942  -9.621 -35.170  0.00  0.00    +0.000 C 
ATOM     23  C4  UNL     1      29.803  -9.491 -34.138  0.00  0.00    +0.000 C 
ATOM     24  C5  UNL     1      30.291  -9.690 -32.724  0.00  0.00    +0.000 C 
ATOM     25  C6  UNL     1      31.484  -9.234 -32.329  0.00  0.00    +0.000 C 
ATOM     26  C7  UNL     1      32.425  -8.665 -33.305  0.00  0.00    +0.000 C 
ATOM     27  O2  UNL     1      33.476  -8.091 -32.911  0.00  0.00    +0.000 OA
ATOM     28  C8  UNL     1      32.139  -8.803 -34.743  0.00  0.00    +0.000 C 
ATOM     29  O3  UNL     1      32.936  -8.322 -35.595  0.00  0.00    +0.000 OA
ENDBRANCH  21  22
ENDBRANCH  18  20
ENDBRANCH   1  17
TORSDOF 4
ENDMDL
